 Gaussian 16, Revision A.03,
 Gaussian 16:  EM64L-G16RevA.03 25-Dec-2016

 ----------------------------------------------------------------------
 #p m062x/6-311+g(2df,2p) opt=(calcfc,verytight,gdiis,maxcycles=900) fr
 eq iop(7/33=1,2/16=3)
 ----------------------------------------------------------------------

 ------------------------------
 Gaussian input prepared by ASE
 ------------------------------
 Symbolic Z-matrix:
 Charge =  0 Multiplicity = 2

 SCF Done:  E(UM062X) =  -232.950976264     A.U. after   13 cycles
 SCF Done:  E(UM062X) =  -232.957273070     A.U. after   12 cycles
 SCF Done:  E(UM062X) =  -232.952893981     A.U. after   15 cycles
 SCF Done:  E(UM062X) =  -232.957591978     A.U. after   12 cycles
 SCF Done:  E(UM062X) =  -232.961440307     A.U. after   14 cycles
 SCF Done:  E(UM062X) =  -232.961702361     A.U. after   11 cycles
 SCF Done:  E(UM062X) =  -232.961905257     A.U. after   12 cycles
 SCF Done:  E(UM062X) =  -232.961985909     A.U. after   11 cycles
 SCF Done:  E(UM062X) =  -232.962005246     A.U. after   11 cycles
 SCF Done:  E(UM062X) =  -232.962015959     A.U. after   10 cycles
 SCF Done:  E(UM062X) =  -232.962070903     A.U. after    7 cycles
 SCF Done:  E(UM062X) =  -232.962070904     A.U. after    6 cycles
 SCF Done:  E(UM062X) =  -232.962070904     A.U. after    4 cycles
 SCF Done:  E(UM062X) =  -232.962070904     A.U. after    4 cycles
 SCF Done:  E(UM062X) =  -232.962070904     A.U. after    3 cycles
 SCF Done:  E(UM062X) =  -232.962070904     A.U. after    2 cycles
 SCF Done:  E(UM062X) =  -232.962070904     A.U. after    2 cycles
 SCF Done:  E(UM062X) =  -232.962070904     A.U. after    2 cycles
 SCF Done:  E(UM062X) =  -232.962070904     A.U. after    2 cycles
 Optimization completed.
    -- Stationary point found.
 Normal termination of Gaussian 16 at Tue Apr  9 02:06:35 2019.

 ----------------------------------------------------------------------
 #P Geom=AllCheck Guess=TCheck SCRF=Check Test GenChk UM062X/6-311+G(2d
 f,2p) Freq
 ----------------------------------------------------------------------

 Structure from the checkpoint file:  "/scratch/underkoffler.c/gaussian_scratch/Gau-45101.chk"
 ------------------------------
 Gaussian input prepared by ASE
 ------------------------------
 Charge =  0 Multiplicity = 2

                         Standard orientation:
 ---------------------------------------------------------------------
 Center     Atomic      Atomic             Coordinates (Angstroms)
 Number     Number       Type             X           Y           Z
 ---------------------------------------------------------------------
      1          8           0       -1.316256   -1.054691   -0.073206
      2          6           0       -0.065529    1.018832    0.358786
      3          6           0        1.196424    0.506980   -0.362757
      4          6           0       -1.346686    0.357957   -0.125608
      5          6           0        1.661048   -0.822626    0.117751
      6          1           0       -0.168188    2.096101    0.208267
      7          1           0        0.046522    0.863480    1.436606
      8          1           0        1.990644    1.244728   -0.212360
      9          1           0        0.996761    0.471518   -1.435315
     10          1           0       -1.513158    0.606909   -1.174862
     11          1           0       -2.198546    0.745564    0.443593
     12          1           0        1.568584   -1.709617   -0.487266
     13          1           0        2.093516   -0.918640    1.103714
     14          1           0       -0.957624   -1.329371    0.774232
 ---------------------------------------------------------------------

 SCF Done:  E(UM062X) =  -232.962070904     A.U. after    1 cycles

 The electronic state is 2-A.
 Alpha  occ. eigenvalues --  -19.61813 -10.57968 -10.53895 -10.53879 -10.53823
 Alpha  occ. eigenvalues --   -1.14383  -0.89981  -0.81594  -0.72308  -0.66899
 Alpha  occ. eigenvalues --   -0.56613  -0.55366  -0.53852  -0.50380  -0.47194
 Alpha  occ. eigenvalues --   -0.44245  -0.42617  -0.41376  -0.38641  -0.35365
 Alpha  occ. eigenvalues --   -0.25509
 Alpha virt. eigenvalues --    0.01485   0.02961   0.03589   0.03767   0.05767
 Alpha virt. eigenvalues --    0.06662   0.06992   0.07312   0.07978   0.10474
 Alpha virt. eigenvalues --    0.11144   0.11204   0.11857   0.12222   0.15531

  Beta  occ. eigenvalues --  -19.61763 -10.57971 -10.53906 -10.53790 -10.53213
  Beta  occ. eigenvalues --   -1.14265  -0.89167  -0.80212  -0.70878  -0.65490
  Beta  occ. eigenvalues --   -0.56433  -0.54876  -0.53485  -0.49626  -0.46628
  Beta  occ. eigenvalues --   -0.43159  -0.42073  -0.40917  -0.38512  -0.34707
  Beta virt. eigenvalues --   -0.02115   0.01211   0.02490   0.03501   0.03748
  Beta virt. eigenvalues --    0.05879   0.06743   0.06872   0.07213   0.08432
  Beta virt. eigenvalues --    0.10387   0.11016   0.11285   0.11529   0.12200

 Mulliken charges and spin densities:
               1          2
     1  O   -0.340708   0.012978
     2  C   -0.287419   0.106489
     3  C   -0.167506  -0.067080
     4  C   -0.233438  -0.023752
     5  C   -0.506025   1.071950
     6  H    0.147237   0.000607
     7  H    0.174751  -0.019711
     8  H    0.147629   0.025116
     9  H    0.167422   0.003484
    10  H    0.148762  -0.000414
    11  H    0.135922   0.001982
    12  H    0.193363  -0.053080
    13  H    0.175467  -0.052612
    14  H    0.244544  -0.005956
 Sum of Mulliken charges =  -0.00000   1.00000

 Dipole moment (field-independent basis, Debye):
    X=              0.5197    Y=              1.3143    Z=              1.0430  Tot=              1.7565
 Quadrupole moment (field-independent basis, Debye-Ang):
   XX=            -35.8700   YY=            -33.2944   ZZ=            -31.2615
   XY=             -2.0142   XZ=             -0.6287   YZ=             -1.9670

  Exact polarizability:  57.992  -3.080  55.568  -0.114  -0.870  49.198
 Approx polarizability:  60.036  -1.923  62.828   0.559  -1.065  60.527

                      1                      2                      3
                      A                      A                      A
 Frequencies --     76.3409               152.6401               166.1642
 Red. masses --      1.8696                 1.1022                 3.1200
 Frc consts  --      0.0064                 0.0151                 0.0508
 IR Inten    --      4.2980                12.2636                 0.4751

                      4                      5                      6
                      A                      A                      A
 Frequencies --    256.4401               301.0694               357.9760
 Red. masses --      1.1344                 2.0589                 1.8488
 Frc consts  --      0.0440                 0.1100                 0.1396
 IR Inten    --    171.4467                 4.5619                 5.0782

                      7                      8                      9
                      A                      A                      A
 Frequencies --    444.0775               523.1437               775.6100
 Red. masses --      1.7147                 1.7188                 1.2387
 Frc consts  --      0.1992                 0.2771                 0.4390
 IR Inten    --     36.2393                 0.7518                 0.9802

                     10                     11                     12
                      A                      A                      A
 Frequencies --    840.5851               904.4060               965.7121
 Red. masses --      2.3980                 1.9507                 1.5184
 Frc consts  --      0.9983                 0.9401                 0.8343
 IR Inten    --      1.0805                 3.2043                10.0936

                     13                     14                     15
                      A                      A                      A
 Frequencies --    989.3752              1096.7444              1117.5870
 Red. masses --      1.8955                 2.1297                 1.6223
 Frc consts  --      1.0932                 1.5093                 1.1938
 IR Inten    --      8.1330                27.7031                32.8653

                     16                     17                     18
                      A                      A                      A
 Frequencies --   1141.8828              1200.7735              1247.5257
 Red. masses --      2.9778                 1.3877                 1.2334
 Frc consts  --      2.2876                 1.1788                 1.1310
 IR Inten    --     31.4488                11.0548                 0.4780

                     19                     20                     21
                      A                      A                      A
 Frequencies --   1302.4034              1342.3009              1367.2497
 Red. masses --      1.1713                 1.3519                 1.2597
 Frc consts  --      1.1706                 1.4352                 1.3875
 IR Inten    --      4.8318                 2.3467                 4.6470

                     22                     23                     24
                      A                      A                      A
 Frequencies --   1384.9980              1432.2633              1466.2919
 Red. masses --      1.3653                 1.3157                 1.1357
 Frc consts  --      1.5430                 1.5902                 1.4386
 IR Inten    --      1.2968                30.1997                 2.4142

                     25                     26                     27
                      A                      A                      A
 Frequencies --   1485.3495              1489.7452              1523.6053
 Red. masses --      1.0998                 1.1437                 1.0862
 Frc consts  --      1.4296                 1.4954                 1.4856
 IR Inten    --      7.1717                 2.4009                 1.3843

                     28                     29                     30
                      A                      A                      A
 Frequencies --   3025.8794              3033.3831              3041.8799
 Red. masses --      1.0682                 1.0649                 1.0648
 Frc consts  --      5.7626                 5.7731                 5.8052
 IR Inten    --     42.7638                24.4003                28.2634

                     31                     32                     33
                      A                      A                      A
 Frequencies --   3084.1214              3092.7697              3102.2295
 Red. masses --      1.0962                 1.0968                 1.0980
 Frc consts  --      6.1433                 6.1811                 6.2261
 IR Inten    --     21.8855                 4.0912                53.9717

                     34                     35                     36
                      A                      A                      A
 Frequencies --   3173.4686              3282.9163              3882.0352
 Red. masses --      1.0521                 1.1181                 1.0662
 Frc consts  --      6.2426                 7.0999                 9.4673
 IR Inten    --     10.1478                 4.5513                28.2310

 - Thermochemistry -
 -------------------
 Temperature   298.150 Kelvin.  Pressure   1.00000 Atm.
 Atom     1 has atomic number  8 and mass  15.99491

 Molecular mass:    73.06534 amu.
 Principal axes and moments of inertia in atomic units:
                           1         2         3
     Eigenvalues --   241.81106 469.23836 629.27295
           X            0.99875  -0.04988  -0.00127
           Y            0.04985   0.99859  -0.01839
           Z            0.00218   0.01831   0.99983
 This molecule is an asymmetric top.
 Rotational symmetry number  1.
 Rotational temperatures (Kelvin)      0.35819     0.18458     0.13764
 Rotational constants (GHZ):           7.46344     3.84611     2.86798
 Zero-point vibrational energy     323416.1 (Joules/Mol)
                                   77.29830 (Kcal/Mol)
 Warning -- explicit consideration of   8 degrees of freedom as
           vibrations may cause significant error
 Vibrational temperatures:    109.84   219.62   239.07   368.96   433.17
          (Kelvin)            515.05   638.93   752.69  1115.93  1209.41
                             1301.24  1389.44  1423.49  1577.97  1607.96
                             1642.91  1727.65  1794.91  1873.87  1931.27
                             1967.17  1992.70  2060.71  2109.67  2137.09
                             2143.41  2192.13  4353.57  4364.36  4376.59
                             4437.36  4449.81  4463.42  4565.91  4723.38
                             5585.38

 Zero-point correction=                           0.123183 (Hartree/Particle)
 Thermal correction to Energy=                    0.130227
 Thermal correction to Enthalpy=                  0.131171
 Thermal correction to Gibbs Free Energy=         0.092293
 Sum of electronic and zero-point Energies=           -232.838888
 Sum of electronic and thermal Energies=              -232.831844
 Sum of electronic and thermal Enthalpies=            -232.830900
 Sum of electronic and thermal Free Energies=         -232.869778

                     E (Thermal)             CV                S
                      KCal/Mol        Cal/Mol-Kelvin    Cal/Mol-Kelvin
 Total                   81.719             23.928             81.826
 Electronic               0.000              0.000              1.377
 Translational            0.889              2.981             38.783
 Rotational               0.889              2.981             25.771
 Vibrational             79.941             17.966             15.895
 Vibration     1          0.599              1.965              3.983
 Vibration     2          0.619              1.900              2.639
 Vibration     3          0.624              1.884              2.478
 Vibration     4          0.666              1.752              1.686
 Vibration     5          0.693              1.672              1.411
 Vibration     6          0.733              1.559              1.131
 Vibration     7          0.804              1.374              0.814
 Vibration     8          0.878              1.199              0.603

                           ! Non-Optimized Parameters !
 Normal termination of Gaussian 16 at Tue Apr  9 02:17:15 2019.
