 Gaussian 16, Revision A.03,
 Gaussian 16:  EM64L-G16RevA.03 25-Dec-2016

 ----------------------------------------------
 #p m062x/6-311+g(2df,2p) Opt=(CalcFC,ModRedun)
 ----------------------------------------------

 ----------------------------------------
 Gaussian Input Prepared from Scan Object
 ----------------------------------------
 Symbolic Z-matrix:
 Charge =  0 Multiplicity = 2

 SCF Done:  E(UM062X) =  -232.964597498     A.U. after   13 cycles

  Exact polarizability:   0.000   0.000   0.000   0.000   0.000   0.000
 Approx polarizability:  61.097  -1.049  63.211  -0.571  -0.598  58.989

 Optimization completed.
    -- Stationary point found.
 SCF Done:  E(UM062X) =  -232.963335363     A.U. after   10 cycles
 SCF Done:  E(UM062X) =  -232.964401114     A.U. after   11 cycles
 SCF Done:  E(UM062X) =  -232.964402763     A.U. after    8 cycles
 Optimization completed.
 SCF Done:  E(UM062X) =  -232.962791577     A.U. after   10 cycles
 SCF Done:  E(UM062X) =  -232.963864810     A.U. after   11 cycles
 SCF Done:  E(UM062X) =  -232.963867935     A.U. after    8 cycles
 SCF Done:  E(UM062X) =  -232.962007365     A.U. after   10 cycles
 SCF Done:  E(UM062X) =  -232.963099452     A.U. after   11 cycles
 SCF Done:  E(UM062X) =  -232.963101364     A.U. after    8 cycles
 SCF Done:  E(UM062X) =  -232.962599654     A.U. after   11 cycles
 SCF Done:  E(UM062X) =  -232.963784509     A.U. after   11 cycles
 SCF Done:  E(UM062X) =  -232.963786029     A.U. after    9 cycles
 SCF Done:  E(UM062X) =  -232.963786099     A.U. after    7 cycles
 SCF Done:  E(UM062X) =  -232.963269124     A.U. after   11 cycles
 SCF Done:  E(UM062X) =  -232.964384213     A.U. after   11 cycles
 SCF Done:  E(UM062X) =  -232.964385951     A.U. after    8 cycles
    -- Stationary point found.
 SCF Done:  E(UM062X) =  -232.963516388     A.U. after   10 cycles
 SCF Done:  E(UM062X) =  -232.964594585     A.U. after   11 cycles
 SCF Done:  E(UM062X) =  -232.964597456     A.U. after    8 cycles
 Optimization completed.
    -- Stationary point found.

                         Standard orientation:
 ---------------------------------------------------------------------
 Center     Atomic      Atomic             Coordinates (Angstroms)
 Number     Number       Type             X           Y           Z
 ---------------------------------------------------------------------
      1          8           0        1.452923    0.988612   -0.092074
      2          6           0        0.056172   -1.015829   -0.368017
      3          6           0       -1.264159   -0.520659    0.231334
      4          6           0        1.287061   -0.370927    0.254866
      5          6           0       -1.574877    0.903553   -0.068426
      6          1           0        0.126526   -2.096351   -0.225754
      7          1           0        0.069100   -0.829312   -1.444748
      8          1           0       -1.256596   -0.682227    1.312783
      9          1           0       -2.075697   -1.153800   -0.154391
     10          1           0        2.185818   -0.875598   -0.098407
     11          1           0        1.251465   -0.490326    1.344987
     12          1           0       -2.209971    1.480029    0.587712
     13          1           0       -1.408299    1.287548   -1.065765
     14          1           0        0.669092    1.474311    0.181632
 ---------------------------------------------------------------------

 The electronic state is 2-A.
 Alpha  occ. eigenvalues --  -19.61295 -10.57741 -10.55130 -10.54554 -10.53563
 Alpha  occ. eigenvalues --   -1.13973  -0.90518  -0.81944  -0.72561  -0.66834
 Alpha  occ. eigenvalues --   -0.58827  -0.54578  -0.52607  -0.50185  -0.47744
 Alpha  occ. eigenvalues --   -0.46372  -0.41987  -0.41438  -0.39178  -0.34568
 Alpha  occ. eigenvalues --   -0.27032
 Alpha virt. eigenvalues --    0.01566   0.02860   0.03457   0.03790   0.06303
 Alpha virt. eigenvalues --    0.06598   0.06992   0.07116   0.07479   0.10640
 Alpha virt. eigenvalues --    0.11140   0.11439   0.11642   0.11788   0.15704

  Beta  occ. eigenvalues --  -19.61226 -10.57743 -10.54616 -10.54465 -10.53539
  Beta  occ. eigenvalues --   -1.13755  -0.89664  -0.80583  -0.71030  -0.65654
  Beta  occ. eigenvalues --   -0.58508  -0.54014  -0.51769  -0.49856  -0.46941
  Beta  occ. eigenvalues --   -0.45465  -0.41420  -0.41069  -0.38585  -0.34334
  Beta virt. eigenvalues --   -0.03326   0.01192   0.02525   0.03330   0.03803
  Beta virt. eigenvalues --    0.06423   0.06535   0.06671   0.07189   0.07871
  Beta virt. eigenvalues --    0.10324   0.10864   0.11295   0.11644   0.11732

 Mulliken charges and spin densities:
               1          2
     1  O   -0.338675   0.016549
     2  C   -0.338343   0.030947
     3  C   -0.173638  -0.065112
     4  C   -0.212325   0.007471
     5  C   -0.500469   1.059595
     6  H    0.149575  -0.001750
     7  H    0.187847  -0.003724
     8  H    0.170230   0.010096
     9  H    0.149562   0.051319
    10  H    0.141897   0.001273
    11  H    0.139762  -0.003241
    12  H    0.178674  -0.045460
    13  H    0.199744  -0.053611
    14  H    0.246159  -0.004349
 Sum of Mulliken charges =  -0.00000   1.00000

 Dipole moment (field-independent basis, Debye):
    X=             -1.7436    Y=             -1.1568    Z=              0.5759  Tot=              2.1702
 Quadrupole moment (field-independent basis, Debye-Ang):
   XX=            -35.8705   YY=            -32.5066   ZZ=            -32.6043
   XY=             -3.4386   XZ=              0.3307   YZ=              0.6183

 Normal termination of Gaussian 16 at Sat Apr 13 01:56:47 2019.
