 Gaussian 16, Revision A.03,
 Gaussian 16:  EM64L-G16RevA.03 25-Dec-2016

 ----------------------------------------------------------------------
 #p m062x/6-311+g(2df,2p) opt=(calcfc,verytight,gdiis,maxcycles=900) fr
 eq iop(7/33=1,2/16=3)
 ----------------------------------------------------------------------

 ------------------------------
 Gaussian input prepared by ASE
 ------------------------------
 Symbolic Z-matrix:
 Charge =  0 Multiplicity = 2

 SCF Done:  E(UM062X) =  -232.951831351     A.U. after   13 cycles
 SCF Done:  E(UM062X) =  -232.959073129     A.U. after   12 cycles
 SCF Done:  E(UM062X) =  -232.960590182     A.U. after   15 cycles
 SCF Done:  E(UM062X) =  -232.958746158     A.U. after   14 cycles
 SCF Done:  E(UM062X) =  -232.957693906     A.U. after   12 cycles
 SCF Done:  E(UM062X) =  -232.962387271     A.U. after   11 cycles
 SCF Done:  E(UM062X) =  -232.963766820     A.U. after   12 cycles
 SCF Done:  E(UM062X) =  -232.963910079     A.U. after   11 cycles
 SCF Done:  E(UM062X) =  -232.963930631     A.U. after   10 cycles
 SCF Done:  E(UM062X) =  -232.963941169     A.U. after   10 cycles
 SCF Done:  E(UM062X) =  -232.963991846     A.U. after    4 cycles
 SCF Done:  E(UM062X) =  -232.963991846     A.U. after    2 cycles
 SCF Done:  E(UM062X) =  -232.963991846     A.U. after    2 cycles
 SCF Done:  E(UM062X) =  -232.963991846     A.U. after    2 cycles
 SCF Done:  E(UM062X) =  -232.963991846     A.U. after    2 cycles
 SCF Done:  E(UM062X) =  -232.963991845     A.U. after    3 cycles
 SCF Done:  E(UM062X) =  -232.963991846     A.U. after    3 cycles
 SCF Done:  E(UM062X) =  -232.963991846     A.U. after    2 cycles
 SCF Done:  E(UM062X) =  -232.963991846     A.U. after    2 cycles
 Optimization completed.
    -- Stationary point found.
 Normal termination of Gaussian 16 at Tue Apr  9 01:38:05 2019.

 ----------------------------------------------------------------------
 #P Geom=AllCheck Guess=TCheck SCRF=Check Test GenChk UM062X/6-311+G(2d
 f,2p) Freq
 ----------------------------------------------------------------------

 Structure from the checkpoint file:  "/scratch/underkoffler.c/gaussian_scratch/Gau-28371.chk"
 ------------------------------
 Gaussian input prepared by ASE
 ------------------------------
 Charge =  0 Multiplicity = 2

                         Standard orientation:
 ---------------------------------------------------------------------
 Center     Atomic      Atomic             Coordinates (Angstroms)
 Number     Number       Type             X           Y           Z
 ---------------------------------------------------------------------
      1          8           0       -1.594921   -0.770424   -0.406439
      2          6           0       -0.038583    1.074388   -0.008857
      3          6           0        1.141216    0.267994   -0.559622
      4          6           0       -1.155037    0.190435    0.534544
      5          6           0        1.701517   -0.703707    0.416883
      6          1           0       -0.435826    1.711388   -0.800391
      7          1           0        0.304875    1.730066    0.795988
      8          1           0        1.921426    0.970259   -0.882506
      9          1           0        0.833021   -0.252558   -1.469462
     10          1           0       -2.025861    0.797951    0.777720
     11          1           0       -0.830254   -0.302842    1.455976
     12          1           0        1.755262   -0.449259    1.466463
     13          1           0        2.266938   -1.561482    0.084712
     14          1           0       -0.924890   -1.454789   -0.474679
 ---------------------------------------------------------------------

 SCF Done:  E(UM062X) =  -232.963991846     A.U. after    1 cycles

 The electronic state is 2-A.
 Alpha  occ. eigenvalues --  -19.61728 -10.57721 -10.54932 -10.54199 -10.53328
 Alpha  occ. eigenvalues --   -1.14227  -0.90360  -0.81480  -0.73128  -0.65839
 Alpha  occ. eigenvalues --   -0.58839  -0.54940  -0.53486  -0.49320  -0.47783
 Alpha  occ. eigenvalues --   -0.45715  -0.42955  -0.40554  -0.38740  -0.34725
 Alpha  occ. eigenvalues --   -0.26977
 Alpha virt. eigenvalues --    0.01654   0.02818   0.03046   0.04157   0.05989
 Alpha virt. eigenvalues --    0.06215   0.06973   0.07060   0.08026   0.10885
 Alpha virt. eigenvalues --    0.11245   0.11809   0.12027   0.12390   0.15173

  Beta  occ. eigenvalues --  -19.61723 -10.57716 -10.54285 -10.54239 -10.53307
  Beta  occ. eigenvalues --   -1.14209  -0.89509  -0.80229  -0.71448  -0.64771
  Beta  occ. eigenvalues --   -0.58628  -0.54243  -0.52940  -0.48877  -0.47096
  Beta  occ. eigenvalues --   -0.44632  -0.42414  -0.40354  -0.38572  -0.34587
  Beta virt. eigenvalues --   -0.03704   0.00973   0.02541   0.02903   0.04261
  Beta virt. eigenvalues --    0.05991   0.06121   0.06892   0.06985   0.08187
  Beta virt. eigenvalues --    0.10231   0.11454   0.11674   0.11932   0.12371

 Mulliken charges and spin densities:
               1          2
     1  O   -0.336169  -0.006701
     2  C   -0.378558   0.027496
     3  C   -0.244476  -0.029187
     4  C   -0.184886   0.026911
     5  C   -0.445726   1.038930
     6  H    0.175402  -0.002433
     7  H    0.172043  -0.003190
     8  H    0.148389   0.046336
     9  H    0.194921   0.004009
    10  H    0.143550  -0.000396
    11  H    0.145357  -0.014765
    12  H    0.183527  -0.048452
    13  H    0.184322  -0.041260
    14  H    0.242305   0.002702
 Sum of Mulliken charges =  -0.00000   1.00000

 Dipole moment (field-independent basis, Debye):
    X=              1.6975    Y=              0.3709    Z=              0.6047  Tot=              1.8398
 Quadrupole moment (field-independent basis, Debye-Ang):
   XX=            -37.1364   YY=            -31.2523   ZZ=            -32.6956
   XY=             -2.2294   XZ=             -1.9707   YZ=              0.5799

  Exact polarizability:  56.636  -1.864  53.693  -0.427  -0.607  50.441
 Approx polarizability:  59.976  -1.256  61.433   0.557   0.355  60.267

                      1                      2                      3
                      A                      A                      A
 Frequencies --     80.6580               157.3339               220.2939
 Red. masses --      3.0640                 1.0493                 1.8764
 Frc consts  --      0.0117                 0.0153                 0.0537
 IR Inten    --      2.5287                 1.4106                 6.1036

                      4                      5                      6
                      A                      A                      A
 Frequencies --    264.7768               345.0690               387.0356
 Red. masses --      2.5633                 1.0757                 2.0539
 Frc consts  --      0.1059                 0.0755                 0.1813
 IR Inten    --      1.2543               108.3793                 1.3298

                      7                      8                      9
                      A                      A                      A
 Frequencies --    514.3496               539.5118               761.9803
 Red. masses --      1.5223                 1.6986                 1.3611
 Frc consts  --      0.2373                 0.2913                 0.4656
 IR Inten    --     44.0695                10.5104                 1.8817

                     10                     11                     12
                      A                      A                      A
 Frequencies --    841.2241               903.3933               962.7053
 Red. masses --      2.5214                 1.4700                 1.9240
 Frc consts  --      1.0513                 0.7068                 1.0506
 IR Inten    --      2.7683                 2.4495                10.8889

                     13                     14                     15
                      A                      A                      A
 Frequencies --    996.5797              1082.9627              1124.9789
 Red. masses --      1.4881                 2.2114                 1.7380
 Frc consts  --      0.8708                 1.5281                 1.2959
 IR Inten    --      5.1779                55.8223                40.2613

                     16                     17                     18
                      A                      A                      A
 Frequencies --   1148.3632              1170.2635              1230.8177
 Red. masses --      2.5734                 1.3481                 1.2765
 Frc consts  --      1.9995                 1.0878                 1.1393
 IR Inten    --     16.1662                 8.1104                 2.3508

                     19                     20                     21
                      A                      A                      A
 Frequencies --   1289.1139              1368.3875              1381.8051
 Red. masses --      1.2613                 1.3806                 1.5344
 Frc consts  --      1.2349                 1.5231                 1.7262
 IR Inten    --      9.2598                 0.4450                 8.7449

                     22                     23                     24
                      A                      A                      A
 Frequencies --   1396.2912              1423.8272              1468.7017
 Red. masses --      1.1967                 1.3049                 1.1708
 Frc consts  --      1.3747                 1.5586                 1.4880
 IR Inten    --     10.0294                24.4930                 2.4979

                     25                     26                     27
                      A                      A                      A
 Frequencies --   1480.1519              1491.3933              1515.5385
 Red. masses --      1.0722                 1.1232                 1.0870
 Frc consts  --      1.3840                 1.4720                 1.4709
 IR Inten    --      6.3277                 5.6032                 2.9127

                     28                     29                     30
                      A                      A                      A
 Frequencies --   2994.5192              3040.0170              3055.6346
 Red. masses --      1.0722                 1.0690                 1.0645
 Frc consts  --      5.6646                 5.8209                 5.8561
 IR Inten    --     19.2384                32.2106                16.6627

                     31                     32                     33
                      A                      A                      A
 Frequencies --   3071.8988              3104.8145              3117.8167
 Red. masses --      1.0843                 1.0986                 1.0989
 Frc consts  --      6.0288                 6.2395                 6.2936
 IR Inten    --     14.6462                27.7203                35.9859

                     34                     35                     36
                      A                      A                      A
 Frequencies --   3161.5636              3262.5913              3884.0162
 Red. masses --      1.0517                 1.1179                 1.0662
 Frc consts  --      6.1937                 7.0111                 9.4769
 IR Inten    --      9.9320                 7.4281                33.3523

 - Thermochemistry -
 -------------------
 Temperature   298.150 Kelvin.  Pressure   1.00000 Atm.
 Atom     1 has atomic number  8 and mass  15.99491

 Molecular mass:    73.06534 amu.
 Principal axes and moments of inertia in atomic units:
                           1         2         3
     Eigenvalues --   229.40911 525.11415 602.69145
           X            0.99925  -0.03463  -0.01733
           Y            0.03437   0.99930  -0.01510
           Z            0.01784   0.01450   0.99974
 This molecule is an asymmetric top.
 Rotational symmetry number  1.
 Rotational temperatures (Kelvin)      0.37755     0.16494     0.14371
 Rotational constants (GHZ):           7.86691     3.43686     2.99447
 Zero-point vibrational energy     324429.5 (Joules/Mol)
                                   77.54052 (Kcal/Mol)
 Warning -- explicit consideration of   8 degrees of freedom as
           vibrations may cause significant error
 Vibrational temperatures:    116.05   226.37   316.95   380.95   496.48
          (Kelvin)            556.86   740.03   776.24  1096.32  1210.33
                             1299.78  1385.12  1433.86  1558.14  1618.59
                             1652.24  1683.75  1770.87  1854.75  1968.80
                             1988.11  2008.95  2048.57  2113.13  2129.61
                             2145.78  2180.52  4308.45  4373.91  4396.38
                             4419.78  4467.14  4485.84  4548.78  4694.14
                             5588.23

 Zero-point correction=                           0.123569 (Hartree/Particle)
 Thermal correction to Energy=                    0.130356
 Thermal correction to Enthalpy=                  0.131300
 Thermal correction to Gibbs Free Energy=         0.093029
 Sum of electronic and zero-point Energies=           -232.840423
 Sum of electronic and thermal Energies=              -232.833636
 Sum of electronic and thermal Enthalpies=            -232.832691
 Sum of electronic and thermal Free Energies=         -232.870963

                     E (Thermal)             CV                S
                      KCal/Mol        Cal/Mol-Kelvin    Cal/Mol-Kelvin
 Total                   81.800             23.535             80.548
 Electronic               0.000              0.000              1.377
 Translational            0.889              2.981             38.783
 Rotational               0.889              2.981             25.788
 Vibrational             80.022             17.573             14.601
 Vibration     1          0.600              1.962              3.875
 Vibration     2          0.621              1.894              2.582
 Vibration     3          0.647              1.810              1.957
 Vibration     4          0.671              1.738              1.630
 Vibration     5          0.723              1.585              1.189
 Vibration     6          0.755              1.498              1.012
 Vibration     7          0.869              1.218              0.623
 Vibration     8          0.895              1.163              0.566

                           ! Non-Optimized Parameters !
 Normal termination of Gaussian 16 at Tue Apr  9 01:43:40 2019.
