 Gaussian 16, Revision A.03,
 Gaussian 16:  EM64L-G16RevA.03 25-Dec-2016

 ----------------------------------------------
 #p m062x/6-311+g(2df,2p) Opt=(CalcFC,ModRedun)
 ----------------------------------------------

 ----------------------------------------
 Gaussian Input Prepared from Scan Object
 ----------------------------------------
 Symbolic Z-matrix:
 Charge =  0 Multiplicity = 2

 SCF Done:  E(UM062X) =  -232.964597498     A.U. after   13 cycles

  Exact polarizability:   0.000   0.000   0.000   0.000   0.000   0.000
 Approx polarizability:  61.097  -1.049  63.211  -0.571  -0.598  58.989

 Optimization completed.
    -- Stationary point found.
 SCF Done:  E(UM062X) =  -232.954951245     A.U. after   12 cycles
 SCF Done:  E(UM062X) =  -232.962730258     A.U. after   11 cycles
 SCF Done:  E(UM062X) =  -232.963330774     A.U. after   11 cycles
 SCF Done:  E(UM062X) =  -232.963345458     A.U. after   10 cycles
 SCF Done:  E(UM062X) =  -232.963346167     A.U. after    9 cycles
 Optimization completed.
 SCF Done:  E(UM062X) =  -232.951371455     A.U. after   12 cycles
 SCF Done:  E(UM062X) =  -232.960482563     A.U. after   11 cycles
 SCF Done:  E(UM062X) =  -232.961224387     A.U. after   11 cycles
 SCF Done:  E(UM062X) =  -232.961232106     A.U. after   10 cycles
 SCF Done:  E(UM062X) =  -232.962556917     A.U. after   12 cycles
 SCF Done:  E(UM062X) =  -232.963391135     A.U. after   11 cycles
 SCF Done:  E(UM062X) =  -232.963404170     A.U. after   10 cycles
 SCF Done:  E(UM062X) =  -232.963405148     A.U. after    9 cycles
 SCF Done:  E(UM062X) =  -232.963405201     A.U. after    7 cycles
    -- Stationary point found.
 SCF Done:  E(UM062X) =  -232.956248841     A.U. after   12 cycles
 SCF Done:  E(UM062X) =  -232.963905944     A.U. after   12 cycles
 SCF Done:  E(UM062X) =  -232.964571817     A.U. after   11 cycles
 SCF Done:  E(UM062X) =  -232.964596600     A.U. after   10 cycles
 SCF Done:  E(UM062X) =  -232.964597488     A.U. after    8 cycles
 Optimization completed.
    -- Stationary point found.

                         Standard orientation:
 ---------------------------------------------------------------------
 Center     Atomic      Atomic             Coordinates (Angstroms)
 Number     Number       Type             X           Y           Z
 ---------------------------------------------------------------------
      1          8           0        1.452661    0.988854   -0.091859
      2          6           0        0.056207   -1.015918   -0.367963
      3          6           0       -1.263995   -0.520611    0.231591
      4          6           0        1.287283   -0.370953    0.254561
      5          6           0       -1.574988    0.903418   -0.068633
      6          1           0        0.126588   -2.096415   -0.225467
      7          1           0        0.068544   -0.829602   -1.444739
      8          1           0       -1.256220   -0.682072    1.313058
      9          1           0       -2.075525   -1.153954   -0.153832
     10          1           0        2.185976   -0.875190   -0.099431
     11          1           0        1.251955   -0.490521    1.344695
     12          1           0       -2.210680    1.479829    0.586959
     13          1           0       -1.407755    1.287176   -1.065950
     14          1           0        0.668786    1.474300    0.182242
 ---------------------------------------------------------------------

 The electronic state is 2-A.
 Alpha  occ. eigenvalues --  -19.61294 -10.57742 -10.55129 -10.54554 -10.53564
 Alpha  occ. eigenvalues --   -1.13970  -0.90518  -0.81944  -0.72561  -0.66834
 Alpha  occ. eigenvalues --   -0.58826  -0.54578  -0.52604  -0.50187  -0.47745
 Alpha  occ. eigenvalues --   -0.46370  -0.41989  -0.41438  -0.39178  -0.34567
 Alpha  occ. eigenvalues --   -0.27031
 Alpha virt. eigenvalues --    0.01566   0.02860   0.03457   0.03791   0.06302
 Alpha virt. eigenvalues --    0.06598   0.06992   0.07116   0.07479   0.10639
 Alpha virt. eigenvalues --    0.11139   0.11438   0.11643   0.11787   0.15705

  Beta  occ. eigenvalues --  -19.61225 -10.57745 -10.54616 -10.54465 -10.53539
  Beta  occ. eigenvalues --   -1.13751  -0.89665  -0.80583  -0.71030  -0.65654
  Beta  occ. eigenvalues --   -0.58507  -0.54014  -0.51766  -0.49858  -0.46942
  Beta  occ. eigenvalues --   -0.45462  -0.41422  -0.41069  -0.38585  -0.34334
  Beta virt. eigenvalues --   -0.03326   0.01192   0.02525   0.03330   0.03803
  Beta virt. eigenvalues --    0.06422   0.06534   0.06671   0.07189   0.07872
  Beta virt. eigenvalues --    0.10324   0.10863   0.11295   0.11644   0.11731

 Mulliken charges and spin densities:
               1          2
     1  O   -0.338724   0.016574
     2  C   -0.338396   0.030895
     3  C   -0.173628  -0.065125
     4  C   -0.212291   0.007458
     5  C   -0.500469   1.059582
     6  H    0.149595  -0.001753
     7  H    0.187823  -0.003714
     8  H    0.170212   0.010133
     9  H    0.149584   0.051340
    10  H    0.141914   0.001275
    11  H    0.139770  -0.003231
    12  H    0.178675  -0.045453
    13  H    0.199778  -0.053618
    14  H    0.246158  -0.004363
 Sum of Mulliken charges =  -0.00000   1.00000

 Dipole moment (field-independent basis, Debye):
    X=             -1.7432    Y=             -1.1577    Z=              0.5759  Tot=              2.1704
 Quadrupole moment (field-independent basis, Debye-Ang):
   XX=            -35.8681   YY=            -32.5089   ZZ=            -32.6041
   XY=             -3.4393   XZ=              0.3292   YZ=              0.6192

 Normal termination of Gaussian 16 at Fri Mar 29 09:56:44 2019.
