 Gaussian 16, Revision A.03,
 Gaussian 16:  EM64L-G16RevA.03 25-Dec-2016

 ----------------------------------------------
 #p m062x/6-311+g(2df,2p) Opt=(CalcFC,ModRedun)
 ----------------------------------------------

 ----------------------------------------
 Gaussian Input Prepared from Scan Object
 ----------------------------------------
 Symbolic Z-matrix:
 Charge =  0 Multiplicity = 2

 SCF Done:  E(UM062X) =  -232.964597498     A.U. after   13 cycles

  Exact polarizability:   0.000   0.000   0.000   0.000   0.000   0.000
 Approx polarizability:  61.097  -1.049  63.211  -0.571  -0.598  58.989

 Optimization completed.
    -- Stationary point found.
 SCF Done:  E(UM062X) =  -232.945588015     A.U. after   12 cycles
 SCF Done:  E(UM062X) =  -232.957049411     A.U. after   12 cycles
 SCF Done:  E(UM062X) =  -232.960353331     A.U. after   12 cycles
 SCF Done:  E(UM062X) =  -232.960730507     A.U. after   11 cycles
 SCF Done:  E(UM062X) =  -232.960767574     A.U. after   10 cycles
 SCF Done:  E(UM062X) =  -232.960774818     A.U. after   10 cycles
 SCF Done:  E(UM062X) =  -232.960775062     A.U. after    8 cycles
 Optimization completed.
 SCF Done:  E(UM062X) =  -232.935618270     A.U. after   12 cycles
 SCF Done:  E(UM062X) =  -232.949111003     A.U. after   12 cycles
 SCF Done:  E(UM062X) =  -232.961504340     A.U. after   10 cycles
 SCF Done:  E(UM062X) =  -232.961514071     A.U. after   10 cycles
 SCF Done:  E(UM062X) =  -232.961514246     A.U. after    7 cycles
    -- Stationary point found.
 SCF Done:  E(UM062X) =  -232.949470889     A.U. after   12 cycles
 SCF Done:  E(UM062X) =  -232.961327090     A.U. after   12 cycles
 SCF Done:  E(UM062X) =  -232.964319426     A.U. after   11 cycles
 SCF Done:  E(UM062X) =  -232.964566363     A.U. after   11 cycles
 SCF Done:  E(UM062X) =  -232.964596039     A.U. after   10 cycles
 SCF Done:  E(UM062X) =  -232.964597437     A.U. after    8 cycles
 SCF Done:  E(UM062X) =  -232.964597496     A.U. after    7 cycles
 Optimization completed.
    -- Stationary point found.

                         Standard orientation:
 ---------------------------------------------------------------------
 Center     Atomic      Atomic             Coordinates (Angstroms)
 Number     Number       Type             X           Y           Z
 ---------------------------------------------------------------------
      1          8           0        1.452851    0.988672   -0.091948
      2          6           0        0.056077   -1.015906   -0.367979
      3          6           0       -1.264110   -0.520559    0.231574
      4          6           0        1.287147   -0.371027    0.254659
      5          6           0       -1.574793    0.903558   -0.068589
      6          1           0        0.126379   -2.096421   -0.225625
      7          1           0        0.068470   -0.829473   -1.444732
      8          1           0       -1.256384   -0.682031    1.313034
      9          1           0       -2.075699   -1.153777   -0.153920
     10          1           0        2.185796   -0.875458   -0.099136
     11          1           0        1.251733   -0.490352    1.344810
     12          1           0       -1.408251    1.287075   -1.066122
     13          1           0       -2.209812    1.480323    0.587368
     14          1           0        0.669030    1.474337    0.181916
 ---------------------------------------------------------------------

 The electronic state is 2-A.
 Alpha  occ. eigenvalues --  -19.61294 -10.57741 -10.55130 -10.54553 -10.53564
 Alpha  occ. eigenvalues --   -1.13970  -0.90519  -0.81943  -0.72561  -0.66834
 Alpha  occ. eigenvalues --   -0.58826  -0.54578  -0.52605  -0.50186  -0.47743
 Alpha  occ. eigenvalues --   -0.46371  -0.41988  -0.41437  -0.39179  -0.34567
 Alpha  occ. eigenvalues --   -0.27031
 Alpha virt. eigenvalues --    0.01566   0.02860   0.03457   0.03791   0.06302
 Alpha virt. eigenvalues --    0.06598   0.06991   0.07116   0.07479   0.10639
 Alpha virt. eigenvalues --    0.11140   0.11439   0.11642   0.11787   0.15704

  Beta  occ. eigenvalues --  -19.61224 -10.57744 -10.54616 -10.54465 -10.53539
  Beta  occ. eigenvalues --   -1.13752  -0.89665  -0.80583  -0.71030  -0.65654
  Beta  occ. eigenvalues --   -0.58507  -0.54014  -0.51768  -0.49858  -0.46940
  Beta  occ. eigenvalues --   -0.45464  -0.41421  -0.41068  -0.38585  -0.34334
  Beta virt. eigenvalues --   -0.03325   0.01193   0.02525   0.03330   0.03803
  Beta virt. eigenvalues --    0.06423   0.06535   0.06671   0.07189   0.07871
  Beta virt. eigenvalues --    0.10324   0.10864   0.11295   0.11644   0.11731

 Mulliken charges and spin densities:
               1          2
     1  O   -0.338715   0.016569
     2  C   -0.338310   0.030947
     3  C   -0.173684  -0.065114
     4  C   -0.212307   0.007456
     5  C   -0.500478   1.059604
     6  H    0.149578  -0.001750
     7  H    0.187829  -0.003728
     8  H    0.170224   0.010102
     9  H    0.149581   0.051327
    10  H    0.141910   0.001275
    11  H    0.139772  -0.003238
    12  H    0.199750  -0.053619
    13  H    0.178681  -0.045469
    14  H    0.246169  -0.004363
 Sum of Mulliken charges =  -0.00000   1.00000

 Dipole moment (field-independent basis, Debye):
    X=             -1.7435    Y=             -1.1572    Z=              0.5758  Tot=              2.1704
 Quadrupole moment (field-independent basis, Debye-Ang):
   XX=            -35.8704   YY=            -32.5073   ZZ=            -32.6035
   XY=             -3.4388   XZ=              0.3304   YZ=              0.6195

 Normal termination of Gaussian 16 at Fri Mar 29 10:38:49 2019.
