 Gaussian 16, Revision A.03,
 Gaussian 16:  EM64L-G16RevA.03 25-Dec-2016

 ----------------------------------------------
 #p m062x/6-311+g(2df,2p) Opt=(CalcFC,ModRedun)
 ----------------------------------------------

 ----------------------------------------
 Gaussian Input Prepared from Scan Object
 ----------------------------------------
 Symbolic Z-matrix:
 Charge =  0 Multiplicity = 2

 SCF Done:  E(UM062X) =  -232.964597498     A.U. after   13 cycles

  Exact polarizability:   0.000   0.000   0.000   0.000   0.000   0.000
 Approx polarizability:  61.097  -1.049  63.211  -0.571  -0.598  58.989

 Optimization completed.
    -- Stationary point found.
 SCF Done:  E(UM062X) =  -232.956604560     A.U. after   12 cycles
 SCF Done:  E(UM062X) =  -232.962575721     A.U. after   12 cycles
 SCF Done:  E(UM062X) =  -232.963574513     A.U. after   12 cycles
 SCF Done:  E(UM062X) =  -232.963640833     A.U. after   10 cycles
 SCF Done:  E(UM062X) =  -232.963648574     A.U. after   10 cycles
 SCF Done:  E(UM062X) =  -232.963649074     A.U. after    8 cycles
 SCF Done:  E(UM062X) =  -232.963649139     A.U. after    7 cycles
 Optimization completed.
 SCF Done:  E(UM062X) =  -232.954342664     A.U. after   13 cycles
 SCF Done:  E(UM062X) =  -232.960802619     A.U. after   12 cycles
 SCF Done:  E(UM062X) =  -232.963620241     A.U. after   10 cycles
 SCF Done:  E(UM062X) =  -232.963635655     A.U. after   10 cycles
 SCF Done:  E(UM062X) =  -232.963637079     A.U. after    9 cycles
 SCF Done:  E(UM062X) =  -232.963637155     A.U. after    7 cycles
    -- Stationary point found.
 SCF Done:  E(UM062X) =  -232.957940697     A.U. after   12 cycles
 SCF Done:  E(UM062X) =  -232.964006592     A.U. after   11 cycles
 SCF Done:  E(UM062X) =  -232.964544984     A.U. after   12 cycles
 SCF Done:  E(UM062X) =  -232.964593644     A.U. after   10 cycles
 SCF Done:  E(UM062X) =  -232.964597408     A.U. after    9 cycles
 SCF Done:  E(UM062X) =  -232.964597497     A.U. after    7 cycles
 Optimization completed.
    -- Stationary point found.

                         Standard orientation:
 ---------------------------------------------------------------------
 Center     Atomic      Atomic             Coordinates (Angstroms)
 Number     Number       Type             X           Y           Z
 ---------------------------------------------------------------------
      1          8           0        1.452773    0.988756   -0.091937
      2          6           0        0.056187   -1.015884   -0.367982
      3          6           0       -1.264040   -0.520610    0.231577
      4          6           0        1.287235   -0.370947    0.254643
      5          6           0       -1.574957    0.903456   -0.068582
      6          1           0        0.126510   -2.096399   -0.225639
      7          1           0        0.068615   -0.829426   -1.444727
      8          1           0       -1.256291   -0.682093    1.313029
      9          1           0       -2.075589   -1.153915   -0.153876
     10          1           0        2.185917   -0.875313   -0.099182
     11          1           0        1.251894   -0.490320    1.344789
     12          1           0       -2.210163    1.480022    0.587345
     13          1           0       -1.408506    1.286998   -1.066117
     14          1           0        0.668878    1.474311    0.181945
 ---------------------------------------------------------------------

 The electronic state is 2-A.
 Alpha  occ. eigenvalues --  -19.61294 -10.57741 -10.55130 -10.54553 -10.53564
 Alpha  occ. eigenvalues --   -1.13971  -0.90518  -0.81943  -0.72561  -0.66834
 Alpha  occ. eigenvalues --   -0.58826  -0.54578  -0.52605  -0.50187  -0.47743
 Alpha  occ. eigenvalues --   -0.46371  -0.41988  -0.41437  -0.39178  -0.34567
 Alpha  occ. eigenvalues --   -0.27032
 Alpha virt. eigenvalues --    0.01566   0.02860   0.03457   0.03791   0.06302
 Alpha virt. eigenvalues --    0.06598   0.06991   0.07116   0.07480   0.10639
 Alpha virt. eigenvalues --    0.11139   0.11439   0.11642   0.11787   0.15705

  Beta  occ. eigenvalues --  -19.61225 -10.57744 -10.54616 -10.54465 -10.53539
  Beta  occ. eigenvalues --   -1.13752  -0.89664  -0.80583  -0.71030  -0.65654
  Beta  occ. eigenvalues --   -0.58507  -0.54014  -0.51769  -0.49858  -0.46940
  Beta  occ. eigenvalues --   -0.45464  -0.41421  -0.41068  -0.38585  -0.34333
  Beta virt. eigenvalues --   -0.03325   0.01192   0.02526   0.03330   0.03803
  Beta virt. eigenvalues --    0.06423   0.06535   0.06671   0.07189   0.07871
  Beta virt. eigenvalues --    0.10324   0.10863   0.11295   0.11644   0.11731

 Mulliken charges and spin densities:
               1          2
     1  O   -0.338707   0.016570
     2  C   -0.338295   0.030935
     3  C   -0.173675  -0.065102
     4  C   -0.212321   0.007453
     5  C   -0.500488   1.059582
     6  H    0.149578  -0.001752
     7  H    0.187828  -0.003727
     8  H    0.170224   0.010105
     9  H    0.149579   0.051331
    10  H    0.141907   0.001276
    11  H    0.139767  -0.003234
    12  H    0.178681  -0.045461
    13  H    0.199753  -0.053615
    14  H    0.246170  -0.004360
 Sum of Mulliken charges =  -0.00000   1.00000

 Dipole moment (field-independent basis, Debye):
    X=             -1.7435    Y=             -1.1574    Z=              0.5758  Tot=              2.1705
 Quadrupole moment (field-independent basis, Debye-Ang):
   XX=            -35.8690   YY=            -32.5084   ZZ=            -32.6036
   XY=             -3.4392   XZ=              0.3303   YZ=              0.6193

 Normal termination of Gaussian 16 at Fri Mar 29 13:35:46 2019.
