 Gaussian 16, Revision A.03,
 Gaussian 16:  EM64L-G16RevA.03 25-Dec-2016

 ----------------------------------------------
 #p m062x/6-311+g(2df,2p) Opt=(CalcFC,ModRedun)
 ----------------------------------------------

 ----------------------------------------
 Gaussian Input Prepared from Scan Object
 ----------------------------------------
 Symbolic Z-matrix:
 Charge =  0 Multiplicity = 2

 SCF Done:  E(UM062X) =  -232.964597498     A.U. after   13 cycles

  Exact polarizability:   0.000   0.000   0.000   0.000   0.000   0.000
 Approx polarizability:  61.097  -1.049  63.211  -0.571  -0.598  58.989

 Optimization completed.
    -- Stationary point found.
 SCF Done:  E(UM062X) =  -232.949171896     A.U. after   12 cycles
 SCF Done:  E(UM062X) =  -232.958835432     A.U. after   12 cycles
 SCF Done:  E(UM062X) =  -232.961512681     A.U. after   12 cycles
 SCF Done:  E(UM062X) =  -232.961653330     A.U. after   11 cycles
 SCF Done:  E(UM062X) =  -232.961668126     A.U. after   10 cycles
 SCF Done:  E(UM062X) =  -232.961670723     A.U. after   10 cycles
 Optimization completed.
 SCF Done:  E(UM062X) =  -232.942437970     A.U. after   12 cycles
 SCF Done:  E(UM062X) =  -232.953637619     A.U. after   12 cycles
 SCF Done:  E(UM062X) =  -232.957749345     A.U. after   12 cycles
    -- Stationary point found.
 SCF Done:  E(UM062X) =  -232.951292892     A.U. after   12 cycles
 SCF Done:  E(UM062X) =  -232.960866420     A.U. after   11 cycles
 SCF Done:  E(UM062X) =  -232.963655071     A.U. after   12 cycles
 SCF Done:  E(UM062X) =  -232.964421207     A.U. after   12 cycles
 SCF Done:  E(UM062X) =  -232.964538044     A.U. after   11 cycles
 SCF Done:  E(UM062X) =  -232.964587384     A.U. after   10 cycles
 SCF Done:  E(UM062X) =  -232.964583252     A.U. after   11 cycles
 SCF Done:  E(UM062X) =  -232.964597374     A.U. after   10 cycles
 SCF Done:  E(UM062X) =  -232.964597455     A.U. after    8 cycles
 SCF Done:  E(UM062X) =  -232.964597498     A.U. after    7 cycles
 Optimization completed.
    -- Stationary point found.

                         Standard orientation:
 ---------------------------------------------------------------------
 Center     Atomic      Atomic             Coordinates (Angstroms)
 Number     Number       Type             X           Y           Z
 ---------------------------------------------------------------------
      1          8           0        1.452819    0.988708   -0.091962
      2          6           0        0.056147   -1.015874   -0.367991
      3          6           0       -1.264069   -0.520599    0.231578
      4          6           0        1.287199   -0.370974    0.254668
      5          6           0       -1.574940    0.903475   -0.068592
      6          1           0        0.126440   -2.096394   -0.225667
      7          1           0        0.068597   -0.829392   -1.444732
      8          1           0       -1.256313   -0.682071    1.313033
      9          1           0       -2.075608   -1.153897   -0.153909
     10          1           0        2.185875   -0.875382   -0.099113
     11          1           0        1.251813   -0.490314    1.344815
     12          1           0       -1.408528    1.287050   -1.066128
     13          1           0       -2.209826    1.480233    0.587492
     14          1           0        0.668979    1.474340    0.181927
 ---------------------------------------------------------------------

 The electronic state is 2-A.
 Alpha  occ. eigenvalues --  -19.61294 -10.57741 -10.55130 -10.54553 -10.53564
 Alpha  occ. eigenvalues --   -1.13971  -0.90518  -0.81943  -0.72561  -0.66834
 Alpha  occ. eigenvalues --   -0.58826  -0.54578  -0.52606  -0.50186  -0.47742
 Alpha  occ. eigenvalues --   -0.46371  -0.41988  -0.41436  -0.39179  -0.34567
 Alpha  occ. eigenvalues --   -0.27031
 Alpha virt. eigenvalues --    0.01566   0.02860   0.03457   0.03791   0.06302
 Alpha virt. eigenvalues --    0.06598   0.06991   0.07116   0.07480   0.10639
 Alpha virt. eigenvalues --    0.11140   0.11439   0.11642   0.11787   0.15704

  Beta  occ. eigenvalues --  -19.61225 -10.57744 -10.54616 -10.54465 -10.53539
  Beta  occ. eigenvalues --   -1.13752  -0.89664  -0.80582  -0.71030  -0.65654
  Beta  occ. eigenvalues --   -0.58507  -0.54013  -0.51769  -0.49858  -0.46940
  Beta  occ. eigenvalues --   -0.45464  -0.41421  -0.41068  -0.38585  -0.34334
  Beta virt. eigenvalues --   -0.03325   0.01193   0.02525   0.03330   0.03803
  Beta virt. eigenvalues --    0.06423   0.06535   0.06671   0.07189   0.07871
  Beta virt. eigenvalues --    0.10324   0.10864   0.11295   0.11644   0.11732

 Mulliken charges and spin densities:
               1          2
     1  O   -0.338709   0.016567
     2  C   -0.338302   0.030962
     3  C   -0.173664  -0.065112
     4  C   -0.212313   0.007444
     5  C   -0.500504   1.059615
     6  H    0.149575  -0.001751
     7  H    0.187831  -0.003731
     8  H    0.170227   0.010098
     9  H    0.149577   0.051326
    10  H    0.141907   0.001275
    11  H    0.139768  -0.003236
    12  H    0.199746  -0.053622
    13  H    0.178688  -0.045476
    14  H    0.246172  -0.004362
 Sum of Mulliken charges =  -0.00000   1.00000

 Dipole moment (field-independent basis, Debye):
    X=             -1.7433    Y=             -1.1571    Z=              0.5760  Tot=              2.1702
 Quadrupole moment (field-independent basis, Debye-Ang):
   XX=            -35.8706   YY=            -32.5075   ZZ=            -32.6033
   XY=             -3.4388   XZ=              0.3304   YZ=              0.6196

 Normal termination of Gaussian 16 at Fri Mar 29 10:35:11 2019.
