 Gaussian 16, Revision A.03,
 Gaussian 16:  EM64L-G16RevA.03 25-Dec-2016

 ----------------------------------------------------------------------
 #p m062x/6-311+g(2df,2p) opt=(calcfc,verytight,gdiis,maxcycles=900) fr
 eq iop(7/33=1,2/16=3)
 ----------------------------------------------------------------------

 ------------------------------
 Gaussian input prepared by ASE
 ------------------------------
 Symbolic Z-matrix:
 Charge =  0 Multiplicity = 2

 SCF Done:  E(UM062X) =  -232.964597498     A.U. after   13 cycles
 Optimization completed.
    -- Stationary point found.
 Normal termination of Gaussian 16 at Mon Mar 11 15:51:34 2019.

 ----------------------------------------------------------------------
 #P Geom=AllCheck Guess=TCheck SCRF=Check Test GenChk UM062X/6-311+G(2d
 f,2p) Freq
 ----------------------------------------------------------------------

 Structure from the checkpoint file:  "/scratch/underkoffler.c/gaussian_scratch/Gau-46707.chk"
 ------------------------------
 Gaussian input prepared by ASE
 ------------------------------
 Charge =  0 Multiplicity = 2

                         Standard orientation:
 ---------------------------------------------------------------------
 Center     Atomic      Atomic             Coordinates (Angstroms)
 Number     Number       Type             X           Y           Z
 ---------------------------------------------------------------------
      1          8           0        1.452787    0.988728   -0.091950
      2          6           0        0.056160   -1.015879   -0.367991
      3          6           0       -1.264052   -0.520605    0.231583
      4          6           0        1.287210   -0.370966    0.254656
      5          6           0       -1.574935    0.903466   -0.068592
      6          1           0        0.126461   -2.096398   -0.225662
      7          1           0        0.068600   -0.829402   -1.444732
      8          1           0       -1.256292   -0.682062    1.313041
      9          1           0       -2.075593   -1.153910   -0.153890
     10          1           0        2.185891   -0.875346   -0.099152
     11          1           0        1.251847   -0.490328    1.344801
     12          1           0       -2.209989    1.480144    0.587399
     13          1           0       -1.408461    1.287051   -1.066114
     14          1           0        0.668943    1.474334    0.181973
 ---------------------------------------------------------------------

 SCF Done:  E(UM062X) =  -232.964597498     A.U. after    1 cycles

 The electronic state is 2-A.
 Alpha  occ. eigenvalues --  -19.61294 -10.57741 -10.55130 -10.54553 -10.53564
 Alpha  occ. eigenvalues --   -1.13971  -0.90518  -0.81943  -0.72561  -0.66834
 Alpha  occ. eigenvalues --   -0.58826  -0.54578  -0.52606  -0.50186  -0.47743
 Alpha  occ. eigenvalues --   -0.46371  -0.41988  -0.41437  -0.39179  -0.34567
 Alpha  occ. eigenvalues --   -0.27031
 Alpha virt. eigenvalues --    0.01566   0.02860   0.03457   0.03791   0.06302
 Alpha virt. eigenvalues --    0.06598   0.06991   0.07116   0.07480   0.10639
 Alpha virt. eigenvalues --    0.11139   0.11439   0.11642   0.11787   0.15705

  Beta  occ. eigenvalues --  -19.61225 -10.57744 -10.54616 -10.54465 -10.53539
  Beta  occ. eigenvalues --   -1.13752  -0.89664  -0.80583  -0.71030  -0.65654
  Beta  occ. eigenvalues --   -0.58507  -0.54013  -0.51769  -0.49858  -0.46940
  Beta  occ. eigenvalues --   -0.45464  -0.41421  -0.41068  -0.38585  -0.34334
  Beta virt. eigenvalues --   -0.03325   0.01192   0.02525   0.03330   0.03803
  Beta virt. eigenvalues --    0.06423   0.06535   0.06671   0.07189   0.07871
  Beta virt. eigenvalues --    0.10324   0.10863   0.11295   0.11644   0.11732

 Mulliken charges and spin densities:
               1          2
     1  O   -0.338709   0.016569
     2  C   -0.338299   0.030948
     3  C   -0.173663  -0.065110
     4  C   -0.212317   0.007449
     5  C   -0.500497   1.059604
     6  H    0.149575  -0.001751
     7  H    0.187830  -0.003728
     8  H    0.170225   0.010103
     9  H    0.149577   0.051329
    10  H    0.141907   0.001275
    11  H    0.139769  -0.003235
    12  H    0.178683  -0.045469
    13  H    0.199749  -0.053620
    14  H    0.246170  -0.004362
 Sum of Mulliken charges =  -0.00000   1.00000

 Dipole moment (field-independent basis, Debye):
    X=             -1.7433    Y=             -1.1572    Z=              0.5759  Tot=              2.1703
 Quadrupole moment (field-independent basis, Debye-Ang):
   XX=            -35.8699   YY=            -32.5078   ZZ=            -32.6034
   XY=             -3.4389   XZ=              0.3303   YZ=              0.6195

  Exact polarizability:  58.030  -2.077  56.020   0.103  -0.204  48.264
 Approx polarizability:  61.097  -1.049  63.211  -0.571  -0.598  58.989

                      1                      2                      3
                      A                      A                      A
 Frequencies --    103.2224               179.0558               215.3807
 Red. masses --      2.1173                 2.8012                 1.1413
 Frc consts  --      0.0133                 0.0529                 0.0312
 IR Inten    --      1.9213                 3.0311                 5.2551

                      4                      5                      6
                      A                      A                      A
 Frequencies --    327.9345               341.5301               396.8776
 Red. masses --      1.7803                 2.0218                 1.2984
 Frc consts  --      0.1128                 0.1389                 0.1205
 IR Inten    --      1.2100                21.3446               115.2792

                      7                      8                      9
                      A                      A                      A
 Frequencies --    486.9868               569.4352               817.8432
 Red. masses --      1.6974                 1.2195                 1.3567
 Frc consts  --      0.2372                 0.2330                 0.5347
 IR Inten    --      1.6416                35.6233                 0.9543

                     10                     11                     12
                      A                      A                      A
 Frequencies --    821.9355               898.3754               958.7259
 Red. masses --      2.5434                 1.7751                 1.4265
 Frc consts  --      1.0124                 0.8441                 0.7725
 IR Inten    --      2.2387                 1.2976                 8.3060

                     13                     14                     15
                      A                      A                      A
 Frequencies --    988.8404              1095.2987              1129.8885
 Red. masses --      2.0609                 2.0953                 2.4898
 Frc consts  --      1.1873                 1.4810                 1.8728
 IR Inten    --     11.2651                33.5130                35.8377

                     16                     17                     18
                      A                      A                      A
 Frequencies --   1154.7268              1176.0800              1256.4481
 Red. masses --      2.3150                 1.1209                 1.2899
 Frc consts  --      1.8187                 0.9135                 1.1997
 IR Inten    --     15.0196                22.1395                 3.0815

                     19                     20                     21
                      A                      A                      A
 Frequencies --   1268.1466              1367.9429              1383.9861
 Red. masses --      1.2324                 1.3763                 1.3858
 Frc consts  --      1.1677                 1.5174                 1.5640
 IR Inten    --     11.3709                 0.2424                 4.0589

                     22                     23                     24
                      A                      A                      A
 Frequencies --   1390.6915              1431.7352              1464.9238
 Red. masses --      1.3247                 1.2851                 1.1483
 Frc consts  --      1.5095                 1.5521                 1.4518
 IR Inten    --      2.2729                33.8375                 6.9778

                     25                     26                     27
                      A                      A                      A
 Frequencies --   1472.1294              1485.3835              1515.8368
 Red. masses --      1.0907                 1.1339                 1.0870
 Frc consts  --      1.3927                 1.4740                 1.4716
 IR Inten    --      6.1974                 6.2335                 1.5777

                     28                     29                     30
                      A                      A                      A
 Frequencies --   2982.7467              3012.6691              3054.8163
 Red. masses --      1.0708                 1.0713                 1.0666
 Frc consts  --      5.6129                 5.7287                 5.8645
 IR Inten    --     18.2370                47.4684                 8.5229

                     31                     32                     33
                      A                      A                      A
 Frequencies --   3065.5734              3103.1752              3109.9353
 Red. masses --      1.0813                 1.1032                 1.0929
 Frc consts  --      5.9873                 6.2592                 6.2276
 IR Inten    --     23.7434                32.4163                32.6028

                     34                     35                     36
                      A                      A                      A
 Frequencies --   3158.5769              3261.4749              3840.7122
 Red. masses --      1.0516                 1.1179                 1.0662
 Frc consts  --      6.1813                 7.0062                 9.2661
 IR Inten    --      7.6820                 6.0829                58.2750

 - Thermochemistry -
 -------------------
 Temperature   298.150 Kelvin.  Pressure   1.00000 Atm.
 Atom     1 has atomic number  8 and mass  15.99491

 Molecular mass:    73.06534 amu.
 Principal axes and moments of inertia in atomic units:
                           1         2         3
     Eigenvalues --   239.26776 474.78186 638.98468
           X            0.99851  -0.05456   0.00274
           Y            0.05455   0.99851   0.00268
           Z           -0.00288  -0.00253   0.99999
 This molecule is an asymmetric top.
 Rotational symmetry number  1.
 Rotational temperatures (Kelvin)      0.36200     0.18243     0.13555
 Rotational constants (GHZ):           7.54277     3.80120     2.82439
 Zero-point vibrational energy     324720.6 (Joules/Mol)
                                   77.61008 (Kcal/Mol)
 Warning -- explicit consideration of   8 degrees of freedom as
           vibrations may cause significant error
 Vibrational temperatures:    148.51   257.62   309.88   471.82   491.39
          (Kelvin)            571.02   700.67   819.29  1176.69  1182.58
                             1292.56  1379.39  1422.72  1575.89  1625.66
                             1661.39  1692.12  1807.75  1824.58  1968.16
                             1991.25  2000.89  2059.95  2107.70  2118.07
                             2137.14  2180.95  4291.51  4334.56  4395.20
                             4410.68  4464.78  4474.50  4544.49  4692.53
                             5525.93

 Zero-point correction=                           0.123680 (Hartree/Particle)
 Thermal correction to Energy=                    0.130298
 Thermal correction to Enthalpy=                  0.131243
 Thermal correction to Gibbs Free Energy=         0.093490
 Sum of electronic and zero-point Energies=           -232.840918
 Sum of electronic and thermal Energies=              -232.834299
 Sum of electronic and thermal Enthalpies=            -232.833355
 Sum of electronic and thermal Free Energies=         -232.871107

                     E (Thermal)             CV                S
                      KCal/Mol        Cal/Mol-Kelvin    Cal/Mol-Kelvin
 Total                   81.764             23.297             79.457
 Electronic               0.000              0.000              1.377
 Translational            0.889              2.981             38.783
 Rotational               0.889              2.981             25.787
 Vibrational             79.986             17.335             13.510
 Vibration     1          0.605              1.947              3.393
 Vibration     2          0.629              1.868              2.338
 Vibration     3          0.645              1.818              1.998
 Vibration     4          0.711              1.620              1.270
 Vibration     5          0.721              1.592              1.205
 Vibration     6          0.763              1.477              0.974
 Vibration     7          0.843              1.279              0.691
 Vibration     8          0.925              1.097              0.505

 Optimization completed.
    -- Stationary point found.
 Normal termination of Gaussian 16 at Mon Mar 11 16:01:35 2019.
