 Gaussian 16, Revision A.03,
 Gaussian 16:  EM64L-G16RevA.03 25-Dec-2016

 ----------------------------------------------
 #p m062x/6-311+g(2df,2p) Opt=(CalcFC,ModRedun)
 ----------------------------------------------

 ----------------------------------------
 Gaussian Input Prepared from Scan Object
 ----------------------------------------
 Symbolic Z-matrix:
 Charge =  0 Multiplicity = 2

 SCF Done:  E(UM062X) =  -232.967421088     A.U. after   14 cycles

  Exact polarizability:   0.000   0.000   0.000   0.000   0.000   0.000
 Approx polarizability:  64.496  -0.140  61.027  -0.337  -0.221  58.872

 Optimization completed.
    -- Stationary point found.
 SCF Done:  E(UM062X) =  -232.966152992     A.U. after   12 cycles
 SCF Done:  E(UM062X) =  -232.967264092     A.U. after   11 cycles
 SCF Done:  E(UM062X) =  -232.967273725     A.U. after    9 cycles
 SCF Done:  E(UM062X) =  -232.967273750     A.U. after    7 cycles
 Optimization completed.
 SCF Done:  E(UM062X) =  -232.965673519     A.U. after   12 cycles
 SCF Done:  E(UM062X) =  -232.966821802     A.U. after   11 cycles
 SCF Done:  E(UM062X) =  -232.966838381     A.U. after   10 cycles
 SCF Done:  E(UM062X) =  -232.966838436     A.U. after    7 cycles
 SCF Done:  E(UM062X) =  -232.964947890     A.U. after   12 cycles
 SCF Done:  E(UM062X) =  -232.965787208     A.U. after   11 cycles
 SCF Done:  E(UM062X) =  -232.966904423     A.U. after   12 cycles
 SCF Done:  E(UM062X) =  -232.966907873     A.U. after   10 cycles
 SCF Done:  E(UM062X) =  -232.966181389     A.U. after   12 cycles
 SCF Done:  E(UM062X) =  -232.967277006     A.U. after   12 cycles
 SCF Done:  E(UM062X) =  -232.967283040     A.U. after   10 cycles
 SCF Done:  E(UM062X) =  -232.967283201     A.U. after    8 cycles
    -- Stationary point found.
 SCF Done:  E(UM062X) =  -232.966322037     A.U. after   12 cycles
 SCF Done:  E(UM062X) =  -232.967415185     A.U. after   11 cycles
 SCF Done:  E(UM062X) =  -232.967421059     A.U. after    9 cycles
 Optimization completed.
    -- Stationary point found.

                         Standard orientation:
 ---------------------------------------------------------------------
 Center     Atomic      Atomic             Coordinates (Angstroms)
 Number     Number       Type             X           Y           Z
 ---------------------------------------------------------------------
      1          8           0        0.622287   -0.747751    0.157385
      2          6           0       -1.729735   -0.739770   -0.013150
      3          6           0       -0.418220    1.478020    0.042635
      4          6           0        1.897719   -0.186018   -0.055047
      5          6           0       -0.457783    0.006326   -0.208639
      6          1           0       -2.552346   -0.237517   -0.519615
      7          1           0       -1.640591   -1.752858   -0.402832
      8          1           0       -1.990230   -0.817195    1.051376
      9          1           0        0.418827    1.970485   -0.452147
     10          1           0       -0.342448    1.699900    1.117279
     11          1           0       -1.336418    1.933461   -0.322894
     12          1           0        2.622438   -0.967705    0.154886
     13          1           0        2.008922    0.142980   -1.091468
     14          1           0        2.081663    0.659112    0.611543
 ---------------------------------------------------------------------

 The electronic state is 2-A.
 Alpha  occ. eigenvalues --  -19.64192 -10.58023 -10.58006 -10.52989 -10.52150
 Alpha  occ. eigenvalues --   -1.18204  -0.88255  -0.80444  -0.77375  -0.64309
 Alpha  occ. eigenvalues --   -0.55749  -0.55485  -0.54862  -0.49274  -0.46500
 Alpha  occ. eigenvalues --   -0.45892  -0.44556  -0.43014  -0.40523  -0.37537
 Alpha  occ. eigenvalues --   -0.21184
 Alpha virt. eigenvalues --    0.01706   0.02956   0.03631   0.04651   0.05490
 Alpha virt. eigenvalues --    0.06389   0.07331   0.08025   0.08189   0.09638
 Alpha virt. eigenvalues --    0.12054   0.13200   0.13607   0.14297   0.15495

  Beta  occ. eigenvalues --  -19.63900 -10.58024 -10.57249 -10.53013 -10.52189
  Beta  occ. eigenvalues --   -1.17114  -0.86823  -0.80084  -0.77132  -0.62967
  Beta  occ. eigenvalues --   -0.54496  -0.54281  -0.53591  -0.47881  -0.46199
  Beta  occ. eigenvalues --   -0.45092  -0.44347  -0.42583  -0.39124  -0.36124
  Beta virt. eigenvalues --   -0.00664   0.02347   0.03059   0.03741   0.03984
  Beta virt. eigenvalues --    0.05609   0.06287   0.07098   0.07883   0.08004
  Beta virt. eigenvalues --    0.09533   0.11555   0.12211   0.12722   0.13144

 Mulliken charges and spin densities:
               1          2
     1  O   -0.110849   0.054803
     2  C   -0.479412  -0.022496
     3  C   -0.394116  -0.060513
     4  C   -0.280758   0.017995
     5  C   -0.010250   0.869512
     6  H    0.137454   0.006994
     7  H    0.147978   0.011259
     8  H    0.140128   0.047615
     9  H    0.143917   0.013229
    10  H    0.157588   0.050613
    11  H    0.140885   0.004145
    12  H    0.135732  -0.000715
    13  H    0.135788   0.006340
    14  H    0.135917   0.001218
 Sum of Mulliken charges =  -0.00000   1.00000

 Dipole moment (field-independent basis, Debye):
    X=              0.4684    Y=              1.1143    Z=              0.0140  Tot=              1.2088
 Quadrupole moment (field-independent basis, Debye-Ang):
   XX=            -29.1367   YY=            -33.4929   ZZ=            -33.9447
   XY=              0.2086   XZ=             -0.1940   YZ=              0.3082

 Normal termination of Gaussian 16 at Mon Mar 11 01:39:41 2019.
