 Gaussian 16, Revision A.03,
 Gaussian 16:  EM64L-G16RevA.03 25-Dec-2016

 ----------------------------------------------------------------------
 #p m062x/6-311+g(2df,2p) opt=(calcfc,verytight,gdiis,maxcycles=900) fr
 eq iop(7/33=1,2/16=3)
 ----------------------------------------------------------------------

 ------------------------------
 Gaussian input prepared by ASE
 ------------------------------
 Symbolic Z-matrix:
 Charge =  0 Multiplicity = 2

 SCF Done:  E(UM062X) =  -193.633729570     A.U. after   14 cycles
 SCF Done:  E(UM062X) =  -193.642762654     A.U. after   11 cycles
 SCF Done:  E(UM062X) =  -193.643092408     A.U. after   12 cycles
 SCF Done:  E(UM062X) =  -193.643126785     A.U. after   10 cycles
 SCF Done:  E(UM062X) =  -193.643129451     A.U. after    9 cycles
 SCF Done:  E(UM062X) =  -193.643129614     A.U. after    8 cycles
 SCF Done:  E(UM062X) =  -193.643129621     A.U. after    7 cycles
 SCF Done:  E(UM062X) =  -193.643129623     A.U. after    6 cycles
 SCF Done:  E(UM062X) =  -193.643129623     A.U. after    6 cycles
 SCF Done:  E(UM062X) =  -193.643129622     A.U. after    5 cycles
 SCF Done:  E(UM062X) =  -193.643129622     A.U. after    6 cycles
 SCF Done:  E(UM062X) =  -193.643129622     A.U. after    4 cycles
 SCF Done:  E(UM062X) =  -193.643129622     A.U. after    5 cycles
 SCF Done:  E(UM062X) =  -193.643129622     A.U. after    4 cycles
 SCF Done:  E(UM062X) =  -193.643129622     A.U. after    3 cycles
 SCF Done:  E(UM062X) =  -193.643129622     A.U. after    2 cycles
 SCF Done:  E(UM062X) =  -193.643129622     A.U. after    3 cycles
 SCF Done:  E(UM062X) =  -193.643129622     A.U. after    2 cycles
 SCF Done:  E(UM062X) =  -193.643129622     A.U. after    2 cycles
 Optimization completed.
    -- Stationary point found.
 Normal termination of Gaussian 16 at Sun Mar 10 20:19:58 2019.

 ----------------------------------------------------------------------
 #P Geom=AllCheck Guess=TCheck SCRF=Check Test GenChk UM062X/6-311+G(2d
 f,2p) Freq
 ----------------------------------------------------------------------

 Structure from the checkpoint file:  "/scratch/underkoffler.c/gaussian_scratch/Gau-10758.chk"
 ------------------------------
 Gaussian input prepared by ASE
 ------------------------------
 Charge =  0 Multiplicity = 2

                         Standard orientation:
 ---------------------------------------------------------------------
 Center     Atomic      Atomic             Coordinates (Angstroms)
 Number     Number       Type             X           Y           Z
 ---------------------------------------------------------------------
      1          8           0        0.449200   -0.505755   -0.051685
      2          6           0       -0.557413    0.472411    0.022960
      3          6           0        1.736903    0.047179    0.009622
      4          6           0       -1.883612   -0.177639   -0.014818
      5          1           0       -0.430798    1.058458    0.951185
      6          1           0       -0.450820    1.190790   -0.804880
      7          1           0        1.892357    0.587039    0.950375
      8          1           0        2.449752   -0.770955   -0.053382
      9          1           0        1.911387    0.739149   -0.821763
     10          1           0       -1.965566   -1.225745    0.224323
     11          1           0       -2.775175    0.415597   -0.138963
 ---------------------------------------------------------------------

 SCF Done:  E(UM062X) =  -193.643129622     A.U. after    1 cycles

 The electronic state is 2-A.
 Alpha  occ. eigenvalues --  -19.62685 -10.58860 -10.57680 -10.54131  -1.16581
 Alpha  occ. eigenvalues --   -0.86554  -0.76575  -0.69355  -0.57125  -0.56362
 Alpha  occ. eigenvalues --   -0.53731  -0.48362  -0.46505  -0.44398  -0.39845
 Alpha  occ. eigenvalues --   -0.34039  -0.26302
 Alpha virt. eigenvalues --    0.01990   0.03410   0.04254   0.04800   0.05530
 Alpha virt. eigenvalues --    0.06661   0.08278   0.08834   0.11074   0.11266
 Alpha virt. eigenvalues --    0.13156   0.15104   0.18921   0.19132   0.21237

  Beta  occ. eigenvalues --  -19.62681 -10.58929 -10.57680 -10.53436  -1.16536
  Beta  occ. eigenvalues --   -0.85001  -0.75545  -0.67229  -0.56710  -0.55762
  Beta  occ. eigenvalues --   -0.53332  -0.47381  -0.45583  -0.43721  -0.39653
  Beta  occ. eigenvalues --   -0.33614
  Beta virt. eigenvalues --   -0.02569   0.01714   0.03030   0.04054   0.04785
  Beta virt. eigenvalues --    0.05600   0.06785   0.08408   0.08612   0.09620
  Beta virt. eigenvalues --    0.12221   0.13210   0.14218   0.18831   0.19413

 Mulliken charges and spin densities:
               1          2
     1  O   -0.166409   0.002652
     2  C   -0.206632  -0.040282
     3  C   -0.249459   0.004624
     4  C   -0.339815   1.039969
     5  H    0.130266   0.044543
     6  H    0.135453   0.028110
     7  H    0.112372  -0.000759
     8  H    0.129446  -0.000346
     9  H    0.112443  -0.000413
    10  H    0.178234  -0.037885
    11  H    0.164101  -0.040214
 Sum of Mulliken charges =  -0.00000   1.00000

 Dipole moment (field-independent basis, Debye):
    X=              0.3827    Y=              1.3656    Z=              0.2231  Tot=              1.4357
 Quadrupole moment (field-independent basis, Debye-Ang):
   XX=            -23.2856   YY=            -26.5040   ZZ=            -27.1997
   XY=             -0.2120   XZ=             -0.0903   YZ=             -0.4763

  Exact polarizability:  50.899   0.944  39.475   0.201   0.111  37.431
 Approx polarizability:  48.712   0.549  46.239   0.256   0.142  43.452

                      1                      2                      3
                      A                      A                      A
 Frequencies --     13.5082               128.4914               228.3528
 Red. masses --      1.1299                 2.0839                 1.2063
 Frc consts  --      0.0001                 0.0203                 0.0371
 IR Inten    --      6.0000                 0.5325                 4.8041

                      4                      5                      6
                      A                      A                      A
 Frequencies --    302.4822               388.6766               491.6706
 Red. masses --      2.2937                 1.2683                 2.8704
 Frc consts  --      0.1236                 0.1129                 0.4088
 IR Inten    --      3.8612                44.3566                 0.9954

                      7                      8                      9
                      A                      A                      A
 Frequencies --    856.5854               965.0244              1086.2817
 Red. masses --      1.6830                 1.6737                 2.4498
 Frc consts  --      0.7276                 0.9184                 1.7032
 IR Inten    --      8.4942                 8.3287                22.1206

                     10                     11                     12
                      A                      A                      A
 Frequencies --   1117.4752              1187.9059              1205.7727
 Red. masses --      2.0936                 1.2645                 2.9093
 Frc consts  --      1.5403                 1.0513                 2.4922
 IR Inten    --      1.4182                 2.7803                89.3984

                     13                     14                     15
                      A                      A                      A
 Frequencies --   1245.8363              1262.4497              1408.6566
 Red. masses --      1.2980                 1.8425                 1.2657
 Frc consts  --      1.1870                 1.7302                 1.4798
 IR Inten    --     30.2826                58.1402                14.8368

                     16                     17                     18
                      A                      A                      A
 Frequencies --   1458.2559              1482.9937              1500.2857
 Red. masses --      1.3186                 1.1496                 1.0448
 Frc consts  --      1.6520                 1.4896                 1.3856
 IR Inten    --     12.3706                 0.7774                 8.7285

                     19                     20                     21
                      A                      A                      A
 Frequencies --   1501.7960              1520.9120              2923.9573
 Red. masses --      1.0912                 1.0726                 1.0713
 Frc consts  --      1.4501                 1.4618                 5.3962
 IR Inten    --     10.7691                 5.3147                42.2845

                     22                     23                     24
                      A                      A                      A
 Frequencies --   2969.7019              3012.2549              3059.8417
 Red. masses --      1.0816                 1.0369                 1.1039
 Frc consts  --      5.6199                 5.5435                 6.0895
 IR Inten    --     41.6079                54.4708                45.4989

                     25                     26                     27
                      A                      A                      A
 Frequencies --   3154.5289              3189.0245              3301.1255
 Red. masses --      1.0970                 1.0508                 1.1205
 Frc consts  --      6.4315                 6.2961                 7.1942
 IR Inten    --     20.0057                 3.7594                 1.9031

 - Thermochemistry -
 -------------------
 Temperature   298.150 Kelvin.  Pressure   1.00000 Atm.
 Atom     1 has atomic number  8 and mass  15.99491

 Molecular mass:    59.04969 amu.
 Principal axes and moments of inertia in atomic units:
                           1         2         3
     Eigenvalues --    57.57788 408.50830 442.71946
           X            0.99996   0.00927  -0.00027
           Y           -0.00927   0.99953  -0.02925
           Z           -0.00001   0.02925   0.99957
 This molecule is an asymmetric top.
 Rotational symmetry number  1.
 Rotational temperatures (Kelvin)      1.50429     0.21202     0.19564
 Rotational constants (GHZ):          31.34435     4.41788     4.07649
 Zero-point vibrational energy     245018.2 (Joules/Mol)
                                   58.56076 (Kcal/Mol)
 Warning -- explicit consideration of   6 degrees of freedom as
           vibrations may cause significant error
 Vibrational temperatures:     19.44   184.87   328.55   435.20   559.22
          (Kelvin)            707.40  1232.44  1388.45  1562.92  1607.80
                             1709.13  1734.84  1792.48  1816.38  2026.74
                             2098.11  2133.70  2158.58  2160.75  2188.25
                             4206.92  4272.74  4333.96  4402.43  4538.66
                             4588.30  4749.58

 Zero-point correction=                           0.093323 (Hartree/Particle)
 Thermal correction to Energy=                    0.099485
 Thermal correction to Enthalpy=                  0.100429
 Thermal correction to Gibbs Free Energy=         0.062717
 Sum of electronic and zero-point Energies=           -193.549807
 Sum of electronic and thermal Energies=              -193.543645
 Sum of electronic and thermal Enthalpies=            -193.542701
 Sum of electronic and thermal Free Energies=         -193.580412

                     E (Thermal)             CV                S
                      KCal/Mol        Cal/Mol-Kelvin    Cal/Mol-Kelvin
 Total                   62.428             18.886             79.371
 Electronic               0.000              0.000              1.377
 Translational            0.889              2.981             38.148
 Rotational               0.889              2.981             23.858
 Vibrational             60.650             12.924             15.987
 Vibration     1          0.593              1.987              7.414
 Vibration     2          0.611              1.925              2.969
 Vibration     3          0.651              1.798              1.892
 Vibration     4          0.694              1.669              1.403
 Vibration     5          0.757              1.494              1.005
 Vibration     6          0.847              1.269              0.679

                           ! Non-Optimized Parameters !
 Normal termination of Gaussian 16 at Sun Mar 10 20:24:11 2019.
