 Gaussian 16, Revision A.03,
 Gaussian 16:  EM64L-G16RevA.03 25-Dec-2016

 ----------------------------------------------
 #p m062x/6-311+g(2df,2p) Opt=(CalcFC,ModRedun)
 ----------------------------------------------

 ----------------------------------------
 Gaussian Input Prepared from Scan Object
 ----------------------------------------
 Symbolic Z-matrix:
 Charge =  0 Multiplicity = 2

 SCF Done:  E(UM062X) =  -193.643129622     A.U. after   13 cycles

  Exact polarizability:   0.000   0.000   0.000   0.000   0.000   0.000
 Approx polarizability:  48.712   0.549  46.239   0.256   0.142  43.452

 Optimization completed.
    -- Stationary point found.
 SCF Done:  E(UM062X) =  -193.641947224     A.U. after   11 cycles
 SCF Done:  E(UM062X) =  -193.642882111     A.U. after   10 cycles
 SCF Done:  E(UM062X) =  -193.642883395     A.U. after    9 cycles
 SCF Done:  E(UM062X) =  -193.642883060     A.U. after   10 cycles
 SCF Done:  E(UM062X) =  -193.642883555     A.U. after    9 cycles
 Optimization completed.
 SCF Done:  E(UM062X) =  -193.641233762     A.U. after   11 cycles
 SCF Done:  E(UM062X) =  -193.642195162     A.U. after   10 cycles
 SCF Done:  E(UM062X) =  -193.642197861     A.U. after    8 cycles
 SCF Done:  E(UM062X) =  -193.640221533     A.U. after   11 cycles
 SCF Done:  E(UM062X) =  -193.641255205     A.U. after    7 cycles
 SCF Done:  E(UM062X) =  -193.641128675     A.U. after   10 cycles
 SCF Done:  E(UM062X) =  -193.642201837     A.U. after   10 cycles
 SCF Done:  E(UM062X) =  -193.642203692     A.U. after    8 cycles
 SCF Done:  E(UM062X) =  -193.641893110     A.U. after   10 cycles
 SCF Done:  E(UM062X) =  -193.642880970     A.U. after   10 cycles
 SCF Done:  E(UM062X) =  -193.642882570     A.U. after    8 cycles
    -- Stationary point found.
 SCF Done:  E(UM062X) =  -193.642186241     A.U. after   10 cycles
 SCF Done:  E(UM062X) =  -193.643128232     A.U. after   10 cycles
 SCF Done:  E(UM062X) =  -193.643129617     A.U. after    9 cycles
 Optimization completed.
    -- Stationary point found.

                         Standard orientation:
 ---------------------------------------------------------------------
 Center     Atomic      Atomic             Coordinates (Angstroms)
 Number     Number       Type             X           Y           Z
 ---------------------------------------------------------------------
      1          8           0        0.449206   -0.505661   -0.051960
      2          6           0       -0.557454    0.472453    0.022867
      3          6           0        1.736938    0.047126    0.009765
      4          6           0       -1.883612   -0.177700   -0.014684
      5          1           0       -0.430709    1.058468    0.951097
      6          1           0       -0.451075    1.190868   -0.804960
      7          1           0        1.892279    0.586705    0.950721
      8          1           0        2.449652   -0.771097   -0.053370
      9          1           0        1.911669    0.739396   -0.821314
     10          1           0       -1.965468   -1.225748    0.224754
     11          1           0       -2.775231    0.415429   -0.138933
 ---------------------------------------------------------------------

 The electronic state is 2-A.
 Alpha  occ. eigenvalues --  -19.62685 -10.58860 -10.57680 -10.54131  -1.16581
 Alpha  occ. eigenvalues --   -0.86555  -0.76575  -0.69355  -0.57125  -0.56361
 Alpha  occ. eigenvalues --   -0.53731  -0.48363  -0.46504  -0.44399  -0.39844
 Alpha  occ. eigenvalues --   -0.34038  -0.26303
 Alpha virt. eigenvalues --    0.01990   0.03410   0.04254   0.04800   0.05530
 Alpha virt. eigenvalues --    0.06661   0.08278   0.08833   0.11073   0.11265
 Alpha virt. eigenvalues --    0.13155   0.15104   0.18922   0.19132   0.21238

  Beta  occ. eigenvalues --  -19.62680 -10.58929 -10.57680 -10.53437  -1.16536
  Beta  occ. eigenvalues --   -0.85001  -0.75545  -0.67229  -0.56711  -0.55762
  Beta  occ. eigenvalues --   -0.53332  -0.47382  -0.45581  -0.43722  -0.39652
  Beta  occ. eigenvalues --   -0.33614
  Beta virt. eigenvalues --   -0.02569   0.01714   0.03030   0.04054   0.04785
  Beta virt. eigenvalues --    0.05599   0.06785   0.08408   0.08612   0.09620
  Beta virt. eigenvalues --    0.12221   0.13209   0.14218   0.18831   0.19412

 Mulliken charges and spin densities:
               1          2
     1  O   -0.166400   0.002651
     2  C   -0.206633  -0.040270
     3  C   -0.249476   0.004627
     4  C   -0.339810   1.039962
     5  H    0.130246   0.044551
     6  H    0.135476   0.028096
     7  H    0.112371  -0.000760
     8  H    0.129448  -0.000347
     9  H    0.112443  -0.000413
    10  H    0.178235  -0.037884
    11  H    0.164102  -0.040214
 Sum of Mulliken charges =  -0.00000   1.00000

 Dipole moment (field-independent basis, Debye):
    X=              0.3826    Y=              1.3655    Z=              0.2237  Tot=              1.4356
 Quadrupole moment (field-independent basis, Debye-Ang):
   XX=            -23.2857   YY=            -26.5037   ZZ=            -27.1998
   XY=             -0.2122   XZ=             -0.0899   YZ=             -0.4773

 Normal termination of Gaussian 16 at Mon Mar 11 00:53:39 2019.
