 Gaussian 16, Revision A.03,
 Gaussian 16:  EM64L-G16RevA.03 25-Dec-2016

 ----------------------------------------------------------------------
 #p m062x/6-311+g(2df,2p) opt=(calcfc,verytight,gdiis,maxcycles=900) fr
 eq iop(7/33=1,2/16=3)
 ----------------------------------------------------------------------

 ------------------------------
 Gaussian input prepared by ASE
 ------------------------------
 Symbolic Z-matrix:
 Charge =  0 Multiplicity = 2

 SCF Done:  E(UM062X) =  -232.942712567     A.U. after   38 cycles
 SCF Done:  E(UM062X) =  -232.953917464     A.U. after   19 cycles
 SCF Done:  E(UM062X) =  -232.955287672     A.U. after   26 cycles
 SCF Done:  E(UM062X) =  -232.956571631     A.U. after   29 cycles
 SCF Done:  E(UM062X) =  -232.956799778     A.U. after   26 cycles
 SCF Done:  E(UM062X) =  -232.952386087     A.U. after   18 cycles
 SCF Done:  E(UM062X) =  -232.956164970     A.U. after   29 cycles
 SCF Done:  E(UM062X) =  -232.957089539     A.U. after   20 cycles
 SCF Done:  E(UM062X) =  -232.957105375     A.U. after   16 cycles
 SCF Done:  E(UM062X) =  -232.957147337     A.U. after   15 cycles
 SCF Done:  E(UM062X) =  -232.957326282     A.U. after   16 cycles
 SCF Done:  E(UM062X) =  -232.957331614     A.U. after   15 cycles
 SCF Done:  E(UM062X) =  -232.957331994     A.U. after   15 cycles
 SCF Done:  E(UM062X) =  -232.957332064     A.U. after   14 cycles
 SCF Done:  E(UM062X) =  -232.957332065     A.U. after   13 cycles
 SCF Done:  E(UM062X) =  -232.957332066     A.U. after    4 cycles
 SCF Done:  E(UM062X) =  -232.957332067     A.U. after    4 cycles
 SCF Done:  E(UM062X) =  -232.957332067     A.U. after    4 cycles
 SCF Done:  E(UM062X) =  -232.957332067     A.U. after    3 cycles
 Optimization completed.
    -- Stationary point found.
 Normal termination of Gaussian 16 at Sat Mar  9 00:55:12 2019.

 ----------------------------------------------------------------------
 #P Geom=AllCheck Guess=TCheck SCRF=Check Test GenChk UM062X/6-311+G(2d
 f,2p) Freq
 ----------------------------------------------------------------------

 Structure from the checkpoint file:  "/scratch/underkoffler.c/gaussian_scratch/Gau-39446.chk"
 ------------------------------
 Gaussian input prepared by ASE
 ------------------------------
 Charge =  0 Multiplicity = 2

                         Standard orientation:
 ---------------------------------------------------------------------
 Center     Atomic      Atomic             Coordinates (Angstroms)
 Number     Number       Type             X           Y           Z
 ---------------------------------------------------------------------
      1          8           0        2.379210   -0.211029   -0.130886
      2          6           0       -1.277367    0.607250    0.262846
      3          6           0        0.148394    0.746205   -0.265444
      4          6           0       -1.955179   -0.693331   -0.159455
      5          6           0        1.081554   -0.332377    0.274348
      6          1           0       -1.866109    1.453889   -0.092741
      7          1           0       -1.267791    0.678795    1.353766
      8          1           0        0.557462    1.717347    0.017912
      9          1           0        0.156480    0.701472   -1.356600
     10          1           0       -2.998850   -0.711995    0.151182
     11          1           0       -1.926438   -0.810037   -1.244120
     12          1           0       -1.470399   -1.564637    0.281903
     13          1           0        1.016217   -0.417466    1.370082
     14          1           0        0.781342   -1.325618   -0.108071
 ---------------------------------------------------------------------

 SCF Done:  E(UM062X) =  -232.957332067     A.U. after    1 cycles

 The electronic state is 2-A.
 Alpha  occ. eigenvalues --  -19.66496 -10.59169 -10.54011 -10.53709 -10.53078
 Alpha  occ. eigenvalues --   -1.15698  -0.90505  -0.81142  -0.73144  -0.66804
 Alpha  occ. eigenvalues --   -0.58328  -0.54455  -0.52898  -0.50749  -0.48526
 Alpha  occ. eigenvalues --   -0.46226  -0.43172  -0.40830  -0.40377  -0.38164
 Alpha  occ. eigenvalues --   -0.35740
 Alpha virt. eigenvalues --    0.01233   0.02544   0.03128   0.03426   0.06219
 Alpha virt. eigenvalues --    0.06438   0.06635   0.07159   0.07316   0.10422
 Alpha virt. eigenvalues --    0.10729   0.11449   0.11759   0.11931   0.14161

  Beta  occ. eigenvalues --  -19.64990 -10.59214 -10.54011 -10.53695 -10.53075
  Beta  occ. eigenvalues --   -1.09713  -0.90193  -0.80495  -0.72029  -0.66357
  Beta  occ. eigenvalues --   -0.55352  -0.53345  -0.52018  -0.48124  -0.47250
  Beta  occ. eigenvalues --   -0.45365  -0.41328  -0.40296  -0.40049  -0.33597
  Beta virt. eigenvalues --   -0.07852   0.01242   0.02526   0.03132   0.03464
  Beta virt. eigenvalues --    0.06255   0.06411   0.06660   0.07151   0.07408
  Beta virt. eigenvalues --    0.10456   0.10815   0.11492   0.11820   0.12065

 Mulliken charges and spin densities:
               1          2
     1  O   -0.204207   0.895020
     2  C   -0.296833  -0.003100
     3  C   -0.194607   0.015316
     4  C   -0.452555   0.006031
     5  C   -0.252504  -0.036491
     6  H    0.151725   0.001116
     7  H    0.167190   0.000283
     8  H    0.152251  -0.000527
     9  H    0.179053   0.000273
    10  H    0.142536   0.000875
    11  H    0.146826  -0.000398
    12  H    0.136045  -0.001979
    13  H    0.155169   0.032659
    14  H    0.169910   0.090924
 Sum of Mulliken charges =  -0.00000   1.00000

 Dipole moment (field-independent basis, Debye):
    X=             -2.2671    Y=             -0.0966    Z=              0.4697  Tot=              2.3172
 Quadrupole moment (field-independent basis, Debye-Ang):
   XX=            -39.9674   YY=            -31.7981   ZZ=            -32.3271
   XY=              0.0689   XZ=              1.0986   YZ=              0.2596

  Exact polarizability:  62.894   0.531  50.386  -0.056  -1.024  48.943
 Approx polarizability:  64.320   0.997  58.373  -1.806  -0.396  58.836

                      1                      2                      3
                      A                      A                      A
 Frequencies --     90.4955               119.9451               227.1615
 Red. masses --      2.2703                 2.0236                 1.6443
 Frc consts  --      0.0110                 0.0172                 0.0500
 IR Inten    --      5.1922                 0.9889                 1.6371

                      4                      5                      6
                      A                      A                      A
 Frequencies --    287.0081               339.4913               465.8167
 Red. masses --      1.5829                 3.4278                 2.5696
 Frc consts  --      0.0768                 0.2328                 0.3285
 IR Inten    --      0.2096                 1.6966                 3.4824

                      7                      8                      9
                      A                      A                      A
 Frequencies --    663.6702               764.2473               870.0064
 Red. masses --      1.2822                 1.2565                 1.3457
 Frc consts  --      0.3328                 0.4324                 0.6001
 IR Inten    --     29.5456                 0.6739                12.0759

                     10                     11                     12
                      A                      A                      A
 Frequencies --    891.5649               968.9345              1029.8006
 Red. masses --      2.4420                 2.1141                 1.1914
 Frc consts  --      1.1437                 1.1694                 0.7444
 IR Inten    --      1.8196                 0.8424                11.4238

                     13                     14                     15
                      A                      A                      A
 Frequencies --   1068.9169              1091.5491              1121.8170
 Red. masses --      1.8999                 2.3983                 2.1588
 Frc consts  --      1.2790                 1.6836                 1.6007
 IR Inten    --      9.1798                 0.5973                 9.8720

                     16                     17                     18
                      A                      A                      A
 Frequencies --   1198.8743              1254.0047              1298.4332
 Red. masses --      1.5040                 1.4277                 1.1692
 Frc consts  --      1.2736                 1.3228                 1.1614
 IR Inten    --      2.5751                 3.3901                 0.8442

                     19                     20                     21
                      A                      A                      A
 Frequencies --   1329.0010              1365.0495              1380.5422
 Red. masses --      1.3008                 1.2772                 1.4501
 Frc consts  --      1.3537                 1.4022                 1.6283
 IR Inten    --      6.9276                 7.3129                 4.6159

                     22                     23                     24
                      A                      A                      A
 Frequencies --   1395.5427              1419.5303              1492.5940
 Red. masses --      1.2177                 1.2777                 1.0793
 Frc consts  --      1.3973                 1.5169                 1.4167
 IR Inten    --      4.3455                 6.1228                 4.5155

                     25                     26                     27
                      A                      A                      A
 Frequencies --   1496.2020              1508.3003              1515.2215
 Red. masses --      1.0619                 1.0647                 1.0552
 Frc consts  --      1.4007                 1.4271                 1.4274
 IR Inten    --      2.0066                 7.2576                 9.3988

                     28                     29                     30
                      A                      A                      A
 Frequencies --   2933.8957              2981.8185              3053.3802
 Red. masses --      1.0616                 1.0842                 1.0643
 Frc consts  --      5.3840                 5.6797                 5.8461
 IR Inten    --     13.0516                20.2867                11.1747

                     31                     32                     33
                      A                      A                      A
 Frequencies --   3060.8416              3064.9092              3094.1606
 Red. masses --      1.0392                 1.0588                 1.0969
 Frc consts  --      5.7363                 5.8600                 6.1873
 IR Inten    --     24.8656                15.9151                10.5163

                     34                     35                     36
                      A                      A                      A
 Frequencies --   3110.6776              3127.1490              3136.8641
 Red. masses --      1.1050                 1.1024                 1.1009
 Frc consts  --      6.2995                 6.3517                 6.3822
 IR Inten    --     21.0951                39.2548                27.2995

 - Thermochemistry -
 -------------------
 Temperature   298.150 Kelvin.  Pressure   1.00000 Atm.
 Atom     1 has atomic number  8 and mass  15.99491

 Molecular mass:    73.06534 amu.
 Principal axes and moments of inertia in atomic units:
                           1         2         3
     Eigenvalues --   146.27821 722.06230 793.87678
           X            0.99990   0.01267   0.00572
           Y           -0.01264   0.99991  -0.00473
           Z           -0.00577   0.00465   0.99997
 This molecule is an asymmetric top.
 Rotational symmetry number  1.
 Rotational temperatures (Kelvin)      0.59212     0.11995     0.10910
 Rotational constants (GHZ):          12.33773     2.49943     2.27333
 Zero-point vibrational energy     324292.2 (Joules/Mol)
                                   77.50769 (Kcal/Mol)
 Warning -- explicit consideration of   6 degrees of freedom as
           vibrations may cause significant error
 Vibrational temperatures:    130.20   172.57   326.83   412.94   488.45
          (Kelvin)            670.21   954.87  1099.58  1251.75  1282.76
                             1394.08  1481.65  1537.93  1570.50  1614.04
                             1724.91  1804.23  1868.16  1912.14  1964.00
                             1986.29  2007.87  2042.39  2147.51  2152.70
                             2170.11  2180.07  4221.22  4290.17  4393.13
                             4403.87  4409.72  4451.81  4475.57  4499.27
                             4513.25

 Zero-point correction=                           0.123516 (Hartree/Particle)
 Thermal correction to Energy=                    0.129966
 Thermal correction to Enthalpy=                  0.130910
 Thermal correction to Gibbs Free Energy=         0.093033
 Sum of electronic and zero-point Energies=           -232.833816
 Sum of electronic and thermal Energies=              -232.827366
 Sum of electronic and thermal Enthalpies=            -232.826422
 Sum of electronic and thermal Free Energies=         -232.864300

                     E (Thermal)             CV                S
                      KCal/Mol        Cal/Mol-Kelvin    Cal/Mol-Kelvin
 Total                   81.555             21.949             79.720
 Electronic               0.000              0.000              1.377
 Translational            0.889              2.981             38.783
 Rotational               0.889              2.981             25.931
 Vibrational             79.777             15.987             13.629
 Vibration     1          0.602              1.956              3.649
 Vibration     2          0.609              1.933              3.101
 Vibration     3          0.651              1.800              1.901
 Vibration     4          0.684              1.698              1.492
 Vibration     5          0.719              1.597              1.215
 Vibration     6          0.823              1.326              0.749

                           ! Non-Optimized Parameters !
 Normal termination of Gaussian 16 at Sat Mar  9 01:05:34 2019.
