 Gaussian 16, Revision A.03,
 Gaussian 16:  EM64L-G16RevA.03 25-Dec-2016

 ----------------------------------------------------------------------
 #p m062x/6-311+g(2df,2p) opt=(calcfc,verytight,gdiis,maxcycles=900) fr
 eq iop(7/33=1,2/16=3)
 ----------------------------------------------------------------------

 ------------------------------
 Gaussian input prepared by ASE
 ------------------------------
 Symbolic Z-matrix:
 Charge =  0 Multiplicity = 2

 SCF Done:  E(UM062X) =  -193.648845650     A.U. after   14 cycles
 SCF Done:  E(UM062X) =  -193.654943781     A.U. after   12 cycles
 SCF Done:  E(UM062X) =  -193.656392177     A.U. after   14 cycles
 SCF Done:  E(UM062X) =  -193.656529902     A.U. after   11 cycles
 SCF Done:  E(UM062X) =  -193.656542165     A.U. after    9 cycles
 SCF Done:  E(UM062X) =  -193.656543786     A.U. after    9 cycles
 SCF Done:  E(UM062X) =  -193.656544243     A.U. after    8 cycles
 SCF Done:  E(UM062X) =  -193.656545024     A.U. after    8 cycles
 SCF Done:  E(UM062X) =  -193.656546087     A.U. after    9 cycles
 SCF Done:  E(UM062X) =  -193.656546129     A.U. after    7 cycles
 SCF Done:  E(UM062X) =  -193.656546129     A.U. after    5 cycles
 SCF Done:  E(UM062X) =  -193.656546129     A.U. after    2 cycles
 SCF Done:  E(UM062X) =  -193.656546129     A.U. after    2 cycles
 SCF Done:  E(UM062X) =  -193.656546129     A.U. after    2 cycles
 Optimization completed.
    -- Stationary point found.
 Normal termination of Gaussian 16 at Thu Mar  7 01:06:39 2019.

 ----------------------------------------------------------------------
 #P Geom=AllCheck Guess=TCheck SCRF=Check Test GenChk UM062X/6-311+G(2d
 f,2p) Freq
 ----------------------------------------------------------------------

 Structure from the checkpoint file:  "/scratch/underkoffler.c/gaussian_scratch/Gau-35117.chk"
 ------------------------------
 Gaussian input prepared by ASE
 ------------------------------
 Charge =  0 Multiplicity = 2

                         Standard orientation:
 ---------------------------------------------------------------------
 Center     Atomic      Atomic             Coordinates (Angstroms)
 Number     Number       Type             X           Y           Z
 ---------------------------------------------------------------------
      1          8           0       -0.491618   -0.469341   -0.036598
      2          6           0        1.868828   -0.098472   -0.003149
      3          6           0       -1.798020    0.060147    0.010254
      4          6           0        0.495839    0.450559    0.086905
      5          1           0        2.004696   -0.908567    0.714731
      6          1           0        2.084542   -0.505951   -0.998181
      7          1           0        2.600751    0.678486    0.208594
      8          1           0       -1.982139    0.543098    0.972318
      9          1           0       -2.488058   -0.768183   -0.121292
     10          1           0       -1.947405    0.788518   -0.791369
     11          1           0        0.260674    1.453923   -0.256080
 ---------------------------------------------------------------------

 SCF Done:  E(UM062X) =  -193.656546129     A.U. after    1 cycles

 The electronic state is 2-A.
 Alpha  occ. eigenvalues --  -19.64973 -10.58346 -10.57739 -10.52558  -1.19023
 Alpha  occ. eigenvalues --   -0.86378  -0.78125  -0.68317  -0.57985  -0.55380
 Alpha  occ. eigenvalues --   -0.54130  -0.48226  -0.45279  -0.44364  -0.41035
 Alpha  occ. eigenvalues --   -0.39503  -0.21936
 Alpha virt. eigenvalues --    0.02127   0.03119   0.04369   0.05103   0.05645
 Alpha virt. eigenvalues --    0.07027   0.07620   0.09350   0.10248   0.12166
 Alpha virt. eigenvalues --    0.14874   0.15717   0.18482   0.18878   0.19824

  Beta  occ. eigenvalues --  -19.64618 -10.58351 -10.57013 -10.52604  -1.17806
  Beta  occ. eigenvalues --   -0.85086  -0.77874  -0.66382  -0.57041  -0.53665
  Beta  occ. eigenvalues --   -0.53068  -0.46794  -0.45072  -0.43818  -0.40061
  Beta  occ. eigenvalues --   -0.37306
  Beta virt. eigenvalues --   -0.00438   0.01985   0.03040   0.04093   0.05168
  Beta virt. eigenvalues --    0.05505   0.06959   0.07539   0.09139   0.09710
  Beta virt. eigenvalues --    0.12368   0.13678   0.14782   0.18219   0.18837

 Mulliken charges and spin densities:
               1          2
     1  O   -0.112534   0.058544
     2  C   -0.453143  -0.045356
     3  C   -0.247315   0.022849
     4  C   -0.111260   0.922014
     5  H    0.141203   0.020669
     6  H    0.130543   0.049940
     7  H    0.128151   0.004760
     8  H    0.129298   0.001275
     9  H    0.128212  -0.000304
    10  H    0.117676   0.003201
    11  H    0.149170  -0.037593
 Sum of Mulliken charges =  -0.00000   1.00000

 Dipole moment (field-independent basis, Debye):
    X=             -0.6272    Y=              0.8352    Z=             -0.3178  Tot=              1.0917
 Quadrupole moment (field-independent basis, Debye-Ang):
   XX=            -22.2999   YY=            -26.6204   ZZ=            -27.0924
   XY=             -0.2224   XZ=             -0.0635   YZ=             -0.6543

  Exact polarizability:  53.373  -0.442  40.059  -0.489   0.781  38.115
 Approx polarizability:  50.374   0.016  46.851  -0.457   0.600  43.990

                      1                      2                      3
                      A                      A                      A
 Frequencies --    113.9006               167.6069               205.9442
 Red. masses --      1.8972                 1.1817                 1.3460
 Frc consts  --      0.0145                 0.0196                 0.0336
 IR Inten    --      3.2364                 1.1254                 4.3872

                      4                      5                      6
                      A                      A                      A
 Frequencies --    294.0992               477.4853               568.5376
 Red. masses --      2.5234                 2.6773                 1.3620
 Frc consts  --      0.1286                 0.3596                 0.2594
 IR Inten    --      4.8103                 2.4987                18.7081

                      7                      8                      9
                      A                      A                      A
 Frequencies --    904.5129              1023.6143              1107.6100
 Red. masses --      1.9009                 1.3890                 3.5472
 Frc consts  --      0.9163                 0.8575                 2.5639
 IR Inten    --      4.8930                 2.1090                46.1078

                     10                     11                     12
                      A                      A                      A
 Frequencies --   1137.0515              1184.5644              1213.9813
 Red. masses --      1.8028                 1.2796                 1.7271
 Frc consts  --      1.3733                 1.0579                 1.4996
 IR Inten    --      3.1858                 2.4091                37.4534

                     13                     14                     15
                      A                      A                      A
 Frequencies --   1305.7744              1388.3255              1434.8889
 Red. masses --      2.5095                 1.2888                 1.5224
 Frc consts  --      2.5210                 1.4636                 1.8468
 IR Inten    --    129.4499                29.3146                56.8520

                     16                     17                     18
                      A                      A                      A
 Frequencies --   1470.4010              1487.3869              1500.5700
 Red. masses --      1.0473                 1.1044                 1.0501
 Frc consts  --      1.3341                 1.4395                 1.3931
 IR Inten    --      7.9310                 7.2100                 8.6959

                     19                     20                     21
                      A                      A                      A
 Frequencies --   1507.3206              1513.8664              3010.3278
 Red. masses --      1.2181                 1.0663                 1.0540
 Frc consts  --      1.6306                 1.4399                 5.6276
 IR Inten    --     10.6727                19.8896                32.4682

                     22                     23                     24
                      A                      A                      A
 Frequencies --   3037.6609              3091.6822              3096.8942
 Red. masses --      1.0355                 1.0810                 1.1043
 Frc consts  --      5.6296                 6.0877                 6.2402
 IR Inten    --     51.4142                10.4641                37.3750

                     25                     26                     27
                      A                      A                      A
 Frequencies --   3138.2035              3153.4388              3167.2852
 Red. masses --      1.0896                 1.0971                 1.0998
 Frc consts  --      6.3223                 6.4276                 6.5004
 IR Inten    --      8.3287                26.4897                16.3841

 - Thermochemistry -
 -------------------
 Temperature   298.150 Kelvin.  Pressure   1.00000 Atm.
 Atom     1 has atomic number  8 and mass  15.99491

 Molecular mass:    59.04969 amu.
 Principal axes and moments of inertia in atomic units:
                           1         2         3
     Eigenvalues --    52.19243 429.21487 457.68509
           X            0.99991  -0.01345  -0.00167
           Y            0.01336   0.99879  -0.04739
           Z            0.00231   0.04736   0.99888
 This molecule is an asymmetric top.
 Rotational symmetry number  1.
 Rotational temperatures (Kelvin)      1.65951     0.20180     0.18924
 Rotational constants (GHZ):          34.57860     4.20475     3.94319
 Zero-point vibrational energy     249438.9 (Joules/Mol)
                                   59.61734 (Kcal/Mol)
 Warning -- explicit consideration of   6 degrees of freedom as
           vibrations may cause significant error
 Vibrational temperatures:    163.88   241.15   296.31   423.14   686.99
          (Kelvin)            818.00  1301.39  1472.75  1593.60  1635.96
                             1704.32  1746.65  1878.72  1997.49  2064.49
                             2115.58  2140.02  2158.99  2168.70  2178.12
                             4331.19  4370.52  4448.24  4455.74  4515.17
                             4537.10  4557.02

 Zero-point correction=                           0.095006 (Hartree/Particle)
 Thermal correction to Energy=                    0.100775
 Thermal correction to Enthalpy=                  0.101719
 Thermal correction to Gibbs Free Energy=         0.066405
 Sum of electronic and zero-point Energies=           -193.561540
 Sum of electronic and thermal Energies=              -193.555771
 Sum of electronic and thermal Enthalpies=            -193.554827
 Sum of electronic and thermal Free Energies=         -193.590141

                     E (Thermal)             CV                S
                      KCal/Mol        Cal/Mol-Kelvin    Cal/Mol-Kelvin
 Total                   63.237             18.208             74.325
 Electronic               0.000              0.000              1.377
 Translational            0.889              2.981             38.148
 Rotational               0.889              2.981             23.843
 Vibrational             61.460             12.247             10.957
 Vibration     1          0.607              1.938              3.201
 Vibration     2          0.624              1.882              2.462
 Vibration     3          0.640              1.831              2.079
 Vibration     4          0.689              1.685              1.450
 Vibration     5          0.834              1.300              0.717
 Vibration     6          0.925              1.099              0.507

 Optimization completed.
    -- Stationary point found.
 Normal termination of Gaussian 16 at Thu Mar  7 01:43:35 2019.
