 Gaussian 16, Revision A.03,
 Gaussian 16:  EM64L-G16RevA.03 25-Dec-2016

 ---------------------------------------------------
 #p m062x/6-311+g(2df,2p) opt=(calcfc,maxcycle=1000)
 ---------------------------------------------------

 ------------------------------
 Gaussian input prepared by ASE
 ------------------------------
 Symbolic Z-matrix:
 Charge =  0 Multiplicity = 1

 SCF Done:  E(RM062X) =  -233.616740415     A.U. after   12 cycles

  Exact polarizability:   0.000   0.000   0.000   0.000   0.000   0.000
 Approx polarizability:  63.943   1.910  61.025   0.028  -0.082  64.148

 SCF Done:  E(RM062X) =  -233.630738713     A.U. after   11 cycles
 SCF Done:  E(RM062X) =  -233.631349375     A.U. after   13 cycles
 SCF Done:  E(RM062X) =  -233.631957208     A.U. after   10 cycles
 SCF Done:  E(RM062X) =  -233.631975210     A.U. after   10 cycles
 SCF Done:  E(RM062X) =  -233.632003772     A.U. after   10 cycles
 SCF Done:  E(RM062X) =  -233.632006748     A.U. after    8 cycles
 SCF Done:  E(RM062X) =  -233.632006874     A.U. after    6 cycles
 SCF Done:  E(RM062X) =  -233.632006876     A.U. after    6 cycles
 Optimization completed.
    -- Stationary point found.

                         Standard orientation:
 ---------------------------------------------------------------------
 Center     Atomic      Atomic             Coordinates (Angstroms)
 Number     Number       Type             X           Y           Z
 ---------------------------------------------------------------------
      1          6           0        0.099691    0.708813   -0.264795
      2          6           0       -1.336134    0.623169    0.249862
      3          6           0        1.000646   -0.384789    0.286740
      4          6           0       -2.049317   -0.664813   -0.153670
      5          8           0        2.339447   -0.260310   -0.152741
      6          1           0       -1.335438    0.715328    1.339229
      7          1           0       -1.896640    1.479065   -0.129151
      8          1           0        0.112317    0.655780   -1.356273
      9          1           0        0.524590    1.679341    0.010025
     10          1           0        0.672658   -1.364043   -0.059284
     11          1           0        0.948608   -0.390664    1.382659
     12          1           0       -3.098309   -0.640728    0.138544
     13          1           0       -2.005503   -0.808021   -1.234644
     14          1           0       -1.598887   -1.539248    0.315266
     15          1           0        2.671712    0.601391    0.106731
 ---------------------------------------------------------------------

 The electronic state is 1-A.
 Alpha  occ. eigenvalues --  -19.61848 -10.57752 -10.53482 -10.53116 -10.52461
 Alpha  occ. eigenvalues --   -1.14315  -0.89988  -0.81032  -0.73439  -0.66410
 Alpha  occ. eigenvalues --   -0.58748  -0.54159  -0.51787  -0.49804  -0.47677
 Alpha  occ. eigenvalues --   -0.44983  -0.43315  -0.39973  -0.39659  -0.37987
 Alpha  occ. eigenvalues --   -0.34528
 Alpha virt. eigenvalues --    0.01297   0.02359   0.03037   0.03565   0.06009
 Alpha virt. eigenvalues --    0.06585   0.06822   0.07274   0.07589   0.10450
 Alpha virt. eigenvalues --    0.10545   0.11227   0.11889   0.12254   0.14274

 Mulliken charges:
               1
     1  C   -0.287184
     2  C   -0.295499
     3  C   -0.185109
     4  C   -0.454401
     5  O   -0.379357
     6  H    0.165033
     7  H    0.148923
     8  H    0.189198
     9  H    0.135201
    10  H    0.150115
    11  H    0.144292
    12  H    0.139480
    13  H    0.145347
    14  H    0.140020
    15  H    0.243941
 Sum of Mulliken charges =  -0.00000

 Dipole moment (field-independent basis, Debye):
    X=             -1.1335    Y=              1.2630    Z=              0.7672  Tot=              1.8624
 Quadrupole moment (field-independent basis, Debye-Ang):
   XX=            -36.3857   YY=            -32.8344   ZZ=            -33.7348
   XY=              3.9825   XZ=              2.0313   YZ=              0.0899

 Normal termination of Gaussian 16 at Thu Jan 24 17:17:36 2019.
