 Gaussian 16, Revision A.03,
 Gaussian 16:  EM64L-G16RevA.03 25-Dec-2016

 ----------------------------------------------
 #p m062x/6-311+g(2df,2p) Opt=(CalcFC,ModRedun)
 ----------------------------------------------

 ------------------------------
 Gaussian input prepared by ASE
 ------------------------------
 Symbolic Z-matrix:
 Charge =  0 Multiplicity = 1

 SCF Done:  E(RM062X) =  -233.632006876     A.U. after   12 cycles

  Exact polarizability:   0.000   0.000   0.000   0.000   0.000   0.000
 Approx polarizability:  63.211   1.392  61.729  -0.809   0.335  60.714

 Optimization completed.
    -- Stationary point found.
 SCF Done:  E(RM062X) =  -233.630823616     A.U. after   10 cycles
 SCF Done:  E(RM062X) =  -233.631884031     A.U. after   10 cycles
 SCF Done:  E(RM062X) =  -233.631886019     A.U. after    8 cycles
 Optimization completed.
 SCF Done:  E(RM062X) =  -233.630497683     A.U. after   10 cycles
 SCF Done:  E(RM062X) =  -233.631552070     A.U. after   10 cycles
 SCF Done:  E(RM062X) =  -233.631554481     A.U. after    8 cycles
 SCF Done:  E(RM062X) =  -233.630027728     A.U. after   10 cycles
 SCF Done:  E(RM062X) =  -233.631094621     A.U. after   10 cycles
 SCF Done:  E(RM062X) =  -233.631096271     A.U. after    7 cycles
 SCF Done:  E(RM062X) =  -233.631118564     A.U. after    8 cycles
 SCF Done:  E(RM062X) =  -233.630397860     A.U. after   10 cycles
 SCF Done:  E(RM062X) =  -233.631566186     A.U. after   10 cycles
 SCF Done:  E(RM062X) =  -233.631567691     A.U. after    8 cycles
 SCF Done:  E(RM062X) =  -233.630771108     A.U. after   10 cycles
 SCF Done:  E(RM062X) =  -233.631890566     A.U. after   10 cycles
 SCF Done:  E(RM062X) =  -233.631891778     A.U. after    8 cycles
    -- Stationary point found.
 SCF Done:  E(RM062X) =  -233.630923522     A.U. after   10 cycles
 SCF Done:  E(RM062X) =  -233.632006102     A.U. after   10 cycles
 SCF Done:  E(RM062X) =  -233.632006876     A.U. after    7 cycles
 Optimization completed.
    -- Stationary point found.

                         Standard orientation:
 ---------------------------------------------------------------------
 Center     Atomic      Atomic             Coordinates (Angstroms)
 Number     Number       Type             X           Y           Z
 ---------------------------------------------------------------------
      1          6           0        0.099710    0.708828   -0.264801
      2          6           0       -1.336111    0.623217    0.249866
      3          6           0        1.000560   -0.384993    0.286467
      4          6           0       -2.049293   -0.664786   -0.153596
      5          8           0        2.339466   -0.260177   -0.152590
      6          1           0       -1.335413    0.715416    1.339229
      7          1           0       -1.896621    1.479101   -0.129170
      8          1           0        0.112331    0.656067   -1.356284
      9          1           0        0.524728    1.679237    0.010257
     10          1           0        0.672758   -1.364116   -0.060098
     11          1           0        0.948296   -0.391366    1.382368
     12          1           0       -3.098320   -0.640639    0.138492
     13          1           0       -2.005354   -0.808138   -1.234546
     14          1           0       -1.598941   -1.539174    0.315504
     15          1           0        2.671604    0.601433    0.107354
 ---------------------------------------------------------------------

 The electronic state is 1-A.
 Alpha  occ. eigenvalues --  -19.61848 -10.57752 -10.53482 -10.53116 -10.52461
 Alpha  occ. eigenvalues --   -1.14315  -0.89988  -0.81032  -0.73440  -0.66410
 Alpha  occ. eigenvalues --   -0.58748  -0.54159  -0.51787  -0.49804  -0.47678
 Alpha  occ. eigenvalues --   -0.44983  -0.43315  -0.39973  -0.39659  -0.37987
 Alpha  occ. eigenvalues --   -0.34528
 Alpha virt. eigenvalues --    0.01297   0.02359   0.03037   0.03565   0.06009
 Alpha virt. eigenvalues --    0.06585   0.06822   0.07274   0.07589   0.10450
 Alpha virt. eigenvalues --    0.10545   0.11228   0.11889   0.12254   0.14273

 Mulliken charges:
               1
     1  C   -0.287157
     2  C   -0.295561
     3  C   -0.185133
     4  C   -0.454400
     5  O   -0.379371
     6  H    0.165044
     7  H    0.148924
     8  H    0.189202
     9  H    0.135197
    10  H    0.150131
    11  H    0.144308
    12  H    0.139482
    13  H    0.145357
    14  H    0.140036
    15  H    0.243943
 Sum of Mulliken charges =  -0.00000

 Dipole moment (field-independent basis, Debye):
    X=             -1.1338    Y=              1.2626    Z=              0.7674  Tot=              1.8624
 Quadrupole moment (field-independent basis, Debye-Ang):
   XX=            -36.3874   YY=            -32.8341   ZZ=            -33.7341
   XY=              3.9814   XZ=              2.0329   YZ=              0.0912

 Normal termination of Gaussian 16 at Mon Jan 28 17:36:50 2019.
