 Gaussian 16, Revision A.03,
 Gaussian 16:  EM64L-G16RevA.03 25-Dec-2016

 ---------------------------------------------------
 #p m062x/6-311+g(2df,2p) opt=(calcfc,maxcycle=1000)
 ---------------------------------------------------

 ------------------------------
 Gaussian input prepared by ASE
 ------------------------------
 Symbolic Z-matrix:
 Charge =  0 Multiplicity = 1

 SCF Done:  E(RM062X) =  -307.660648312     A.U. after   12 cycles

  Exact polarizability:   0.000   0.000   0.000   0.000   0.000   0.000
 Approx polarizability:  67.311  -1.329  71.698   0.228  -0.019  57.303

 SCF Done:  E(RM062X) =  -307.675531201     A.U. after   11 cycles
 SCF Done:  E(RM062X) =  -307.676256499     A.U. after   11 cycles
 SCF Done:  E(RM062X) =  -307.676294243     A.U. after   10 cycles
 SCF Done:  E(RM062X) =  -307.676340832     A.U. after   11 cycles
 SCF Done:  E(RM062X) =  -307.676355123     A.U. after   10 cycles
 SCF Done:  E(RM062X) =  -307.676358443     A.U. after   10 cycles
 SCF Done:  E(RM062X) =  -307.676359426     A.U. after    8 cycles
 Optimization completed.
    -- Stationary point found.

                         Standard orientation:
 ---------------------------------------------------------------------
 Center     Atomic      Atomic             Coordinates (Angstroms)
 Number     Number       Type             X           Y           Z
 ---------------------------------------------------------------------
      1          6           0       -1.211140   -0.743694   -0.000075
      2          6           0       -2.460725    0.119894    0.000062
      3          6           0        2.388062   -0.006621    0.000005
      4          6           0        0.051244    0.078863   -0.000008
      5          8           0        1.143299   -0.700774    0.000062
      6          1           0       -1.171971   -1.401052    0.870266
      7          1           0       -1.172024   -1.400800   -0.870612
      8          1           0       -3.354192   -0.501452   -0.000462
      9          1           0       -2.484458    0.763181    0.877432
     10          1           0       -2.484022    0.764032   -0.876698
     11          1           0        2.471787    0.620984   -0.885088
     12          1           0        3.157112   -0.771666   -0.000169
     13          1           0        2.471980    0.620781    0.885221
     14          8           0        0.101844    1.277692   -0.000036
 ---------------------------------------------------------------------

 The electronic state is 1-A.
 Alpha  occ. eigenvalues --  -19.66863 -19.61280 -10.66806 -10.58921 -10.55063
 Alpha  occ. eigenvalues --  -10.52800  -1.23855  -1.14354  -0.89349  -0.82386
 Alpha  occ. eigenvalues --   -0.73252  -0.64606  -0.58973  -0.58005  -0.56226
 Alpha  occ. eigenvalues --   -0.52483  -0.50589  -0.46018  -0.44639  -0.44048
 Alpha  occ. eigenvalues --   -0.42653  -0.41443  -0.37843  -0.35594
 Alpha virt. eigenvalues --    0.01131   0.02431   0.03677   0.03960   0.05005
 Alpha virt. eigenvalues --    0.05090   0.05753   0.06577   0.08384   0.08734
 Alpha virt. eigenvalues --    0.09016   0.09734   0.10542   0.12387   0.14286

 Mulliken charges:
               1
     1  C   -0.122911
     2  C   -0.485094
     3  C   -0.184706
     4  C    0.206563
     5  O   -0.163527
     6  H    0.156801
     7  H    0.156797
     8  H    0.133791
     9  H    0.150338
    10  H    0.150335
    11  H    0.138756
    12  H    0.131995
    13  H    0.138764
    14  O   -0.407903
 Sum of Mulliken charges =  -0.00000

 Dipole moment (field-independent basis, Debye):
    X=              0.3631    Y=             -1.6689    Z=             -0.0001  Tot=              1.7080
 Quadrupole moment (field-independent basis, Debye-Ang):
   XX=            -30.8407   YY=            -41.3454   ZZ=            -35.8975
   XY=              1.4923   XZ=             -0.0000   YZ=              0.0002

 Normal termination of Gaussian 16 at Wed Feb  6 16:23:15 2019.
