 Gaussian 16, Revision A.03,
 Gaussian 16:  EM64L-G16RevA.03 25-Dec-2016

 ---------------------------------------------------
 #p m062x/6-311+g(2df,2p) opt=(calcfc,maxcycle=1000)
 ---------------------------------------------------

 ------------------------------
 Gaussian input prepared by ASE
 ------------------------------
 Symbolic Z-matrix:
 Charge =  0 Multiplicity = 1

 SCF Done:  E(RM062X) =  -346.945755894     A.U. after   13 cycles

  Exact polarizability:   0.000   0.000   0.000   0.000   0.000   0.000
 Approx polarizability:  82.218   1.822  85.042   0.581   0.708  72.568

 SCF Done:  E(RM062X) =  -346.971997480     A.U. after   12 cycles
 SCF Done:  E(RM062X) =  -346.980145941     A.U. after   13 cycles
 SCF Done:  E(RM062X) =  -346.963458490     A.U. after   12 cycles
 SCF Done:  E(RM062X) =  -346.981035610     A.U. after   12 cycles
 SCF Done:  E(RM062X) =  -346.981495504     A.U. after   11 cycles
 SCF Done:  E(RM062X) =  -346.981227602     A.U. after   12 cycles
 SCF Done:  E(RM062X) =  -346.981690279     A.U. after   11 cycles
 SCF Done:  E(RM062X) =  -346.981745962     A.U. after   10 cycles
 SCF Done:  E(RM062X) =  -346.981772769     A.U. after    9 cycles
 SCF Done:  E(RM062X) =  -346.981787944     A.U. after    9 cycles
 SCF Done:  E(RM062X) =  -346.981796012     A.U. after   10 cycles
 SCF Done:  E(RM062X) =  -346.981800625     A.U. after    9 cycles
 SCF Done:  E(RM062X) =  -346.981803534     A.U. after   10 cycles
 SCF Done:  E(RM062X) =  -346.981805578     A.U. after    9 cycles
 SCF Done:  E(RM062X) =  -346.981806351     A.U. after    9 cycles
 Optimization completed.
    -- Stationary point found.

                         Standard orientation:
 ---------------------------------------------------------------------
 Center     Atomic      Atomic             Coordinates (Angstroms)
 Number     Number       Type             X           Y           Z
 ---------------------------------------------------------------------
      1          8           0       -1.629831   -0.752333   -0.000092
      2          8           0       -0.804062    1.325207    0.000224
      3          6           0        1.878392    0.433479   -0.000403
      4          6           0        0.715542   -0.545604    0.000119
      5          6           0        3.220969   -0.286631    0.000155
      6          6           0       -2.941095   -0.193943   -0.000054
      7          6           0       -0.626165    0.138511    0.000048
      8          1           0        1.796118    1.084031   -0.871650
      9          1           0        1.795891    1.085223    0.869936
     10          1           0        0.751138   -1.205143   -0.870498
     11          1           0        0.751246   -1.204321    0.871370
     12          1           0        3.324530   -0.921792    0.881089
     13          1           0        4.048707    0.420804   -0.000302
     14          1           0        3.324482   -0.922868   -0.880009
     15          1           0       -3.090877    0.421494    0.884876
     16          1           0       -3.624789   -1.036185    0.000309
     17          1           0       -3.091161    0.420898   -0.885360
 ---------------------------------------------------------------------

 The electronic state is 1-A.
 Alpha  occ. eigenvalues --  -19.66822 -19.61237 -10.66799 -10.58890 -10.54824
 Alpha  occ. eigenvalues --  -10.53419 -10.52587  -1.23812  -1.14309  -0.90668
 Alpha  occ. eigenvalues --   -0.84190  -0.78509  -0.69052  -0.64441  -0.58954
 Alpha  occ. eigenvalues --   -0.58101  -0.56256  -0.53855  -0.50017  -0.48422
 Alpha  occ. eigenvalues --   -0.48146  -0.43863  -0.43737  -0.41708  -0.40759
 Alpha  occ. eigenvalues --   -0.39816  -0.37723  -0.35511
 Alpha virt. eigenvalues --    0.01192   0.02299   0.03445   0.03721   0.04215
 Alpha virt. eigenvalues --    0.05176   0.05464   0.05860   0.06687   0.07994
 Alpha virt. eigenvalues --    0.07998   0.08461   0.09328   0.10804   0.11739

 Mulliken charges:
               1
     1  O   -0.159746
     2  O   -0.408381
     3  C   -0.211762
     4  C   -0.257034
     5  C   -0.561855
     6  C   -0.182537
     7  C    0.274807
     8  H    0.170317
     9  H    0.170298
    10  H    0.170910
    11  H    0.170920
    12  H    0.135573
    13  H    0.140994
    14  H    0.135562
    15  H    0.139779
    16  H    0.132365
    17  H    0.139788
 Sum of Mulliken charges =  -0.00000

 Dipole moment (field-independent basis, Debye):
    X=             -0.1257    Y=             -1.6092    Z=             -0.0002  Tot=              1.6141
 Quadrupole moment (field-independent basis, Debye-Ang):
   XX=            -37.1012   YY=            -48.5536   ZZ=            -42.4661
   XY=              1.0762   XZ=             -0.0000   YZ=             -0.0007

 Normal termination of Gaussian 16 at Mon Feb 11 22:01:19 2019.
