 Gaussian 16, Revision A.03,
 Gaussian 16:  EM64L-G16RevA.03 25-Dec-2016

 ---------------------------------------------------
 #p m062x/6-311+g(2df,2p) opt=(calcfc,maxcycle=1000)
 ---------------------------------------------------

 ------------------------------
 Gaussian input prepared by ASE
 ------------------------------
 Symbolic Z-matrix:
 Charge =  0 Multiplicity = 1

 SCF Done:  E(RM062X) =  -348.118659559     A.U. after   12 cycles

  Exact polarizability:   0.000   0.000   0.000   0.000   0.000   0.000
 Approx polarizability:  82.772  -1.734  79.077   0.976  -0.156  80.874

 SCF Done:  E(RM062X) =  -348.139978707     A.U. after   13 cycles
 SCF Done:  E(RM062X) =  -348.137520468     A.U. after   12 cycles
 SCF Done:  E(RM062X) =  -348.143303896     A.U. after   11 cycles
 SCF Done:  E(RM062X) =  -348.147510607     A.U. after   11 cycles
 SCF Done:  E(RM062X) =  -348.150346690     A.U. after   11 cycles
 SCF Done:  E(RM062X) =  -348.151266212     A.U. after   10 cycles
 SCF Done:  E(RM062X) =  -348.151890151     A.U. after   10 cycles
 SCF Done:  E(RM062X) =  -348.151983131     A.U. after    9 cycles
 SCF Done:  E(RM062X) =  -348.152007226     A.U. after    9 cycles
 SCF Done:  E(RM062X) =  -348.152052991     A.U. after   10 cycles
 SCF Done:  E(RM062X) =  -348.152096026     A.U. after   10 cycles
 SCF Done:  E(RM062X) =  -348.152064893     A.U. after    9 cycles
 SCF Done:  E(RM062X) =  -348.152000377     A.U. after   10 cycles
 SCF Done:  E(RM062X) =  -348.152316841     A.U. after   10 cycles
 SCF Done:  E(RM062X) =  -348.152320012     A.U. after    8 cycles
 SCF Done:  E(RM062X) =  -348.152321421     A.U. after    8 cycles
 SCF Done:  E(RM062X) =  -348.152323082     A.U. after    8 cycles
 SCF Done:  E(RM062X) =  -348.152323985     A.U. after    7 cycles
 SCF Done:  E(RM062X) =  -348.152324362     A.U. after    7 cycles
 Optimization completed.
    -- Stationary point found.

                         Standard orientation:
 ---------------------------------------------------------------------
 Center     Atomic      Atomic             Coordinates (Angstroms)
 Number     Number       Type             X           Y           Z
 ---------------------------------------------------------------------
      1          8           0        1.275161    0.234899   -0.631207
      2          8           0       -2.138673   -0.903255    0.079606
      3          6           0        0.001024    0.312056    0.003573
      4          6           0       -0.824019   -0.904903   -0.439214
      5          6           0       -0.617994    1.591579   -0.539711
      6          6           0        0.104674    0.373863    1.522580
      7          6           0        2.210178   -0.674964   -0.103599
      8          1           0       -0.822242   -0.941815   -1.532946
      9          1           0       -0.362499   -1.821126   -0.071541
     10          1           0       -0.669284    1.550184   -1.628086
     11          1           0       -0.002560    2.445180   -0.259485
     12          1           0       -1.618261    1.746801   -0.135274
     13          1           0        0.505277   -0.550595    1.938393
     14          1           0       -0.886234    0.522467    1.946937
     15          1           0        0.746597    1.202416    1.823462
     16          1           0        1.809115   -1.687901   -0.012688
     17          1           0        3.044749   -0.697800   -0.800462
     18          1           0        2.580160   -0.355901    0.873862
     19          1           0       -2.659897   -0.250847   -0.391149
 ---------------------------------------------------------------------

 The electronic state is 1-A.
 Alpha  occ. eigenvalues --  -19.62627 -19.62307 -10.59284 -10.57887 -10.57542
 Alpha  occ. eigenvalues --  -10.52554 -10.52305  -1.16219  -1.14780  -0.89798
 Alpha  occ. eigenvalues --   -0.79737  -0.78134  -0.76684  -0.64254  -0.59214
 Alpha  occ. eigenvalues --   -0.57410  -0.55199  -0.53333  -0.51024  -0.49306
 Alpha  occ. eigenvalues --   -0.46182  -0.45348  -0.44607  -0.43807  -0.41879
 Alpha  occ. eigenvalues --   -0.41508  -0.37382  -0.36547  -0.31865
 Alpha virt. eigenvalues --    0.01108   0.02008   0.03100   0.03544   0.05201
 Alpha virt. eigenvalues --    0.05221   0.06027   0.06454   0.06810   0.08423
 Alpha virt. eigenvalues --    0.08878   0.09573   0.10294   0.11649   0.11721

 Mulliken charges:
               1
     1  O   -0.115021
     2  O   -0.346430
     3  C   -0.250011
     4  C   -0.093637
     5  C   -0.455526
     6  C   -0.502215
     7  C   -0.295820
     8  H    0.183150
     9  H    0.169857
    10  H    0.182143
    11  H    0.171727
    12  H    0.154035
    13  H    0.169301
    14  H    0.182699
    15  H    0.182831
    16  H    0.133958
    17  H    0.147392
    18  H    0.134929
    19  H    0.246638
 Sum of Mulliken charges =  -0.00000

 Dipole moment (field-independent basis, Debye):
    X=              0.2492    Y=              0.3681    Z=             -0.0302  Tot=              0.4455
 Quadrupole moment (field-independent basis, Debye-Ang):
   XX=            -44.2238   YY=            -45.9723   ZZ=            -45.9242
   XY=             -5.5411   XZ=              4.0058   YZ=              1.1779

 Normal termination of Gaussian 16 at Fri Feb  8 08:15:57 2019.
