 Gaussian 16, Revision A.03,
 Gaussian 16:  EM64L-G16RevA.03 25-Dec-2016

 -----------------------------------------
 #p m062x/6-311+g(2df,2p) freq iop(7/33=1)
 -----------------------------------------

 (Enter /shared/centos7/gaussian/g16/l101.exe)

 Symbolic Z-matrix:
 Charge =  0 Multiplicity = 1

                         Standard orientation:
 ---------------------------------------------------------------------
 Center     Atomic      Atomic             Coordinates (Angstroms)
 Number     Number       Type             X           Y           Z
 ---------------------------------------------------------------------
      1          8           0        1.275161    0.234899   -0.631207
      2          8           0       -2.138673   -0.903255    0.079606
      3          6           0        0.001024    0.312056    0.003573
      4          6           0       -0.824019   -0.904903   -0.439214
      5          6           0       -0.617994    1.591579   -0.539711
      6          6           0        0.104674    0.373863    1.522580
      7          6           0        2.210178   -0.674964   -0.103599
      8          1           0       -0.822242   -0.941815   -1.532946
      9          1           0       -0.362499   -1.821126   -0.071541
     10          1           0       -0.669284    1.550184   -1.628086
     11          1           0       -0.002560    2.445180   -0.259485
     12          1           0       -1.618261    1.746801   -0.135274
     13          1           0        0.505277   -0.550595    1.938393
     14          1           0       -0.886234    0.522467    1.946937
     15          1           0        0.746597    1.202416    1.823462
     16          1           0        1.809115   -1.687901   -0.012688
     17          1           0        3.044749   -0.697800   -0.800462
     18          1           0        2.580160   -0.355901    0.873862
     19          1           0       -2.659897   -0.250847   -0.391149
 ---------------------------------------------------------------------

 SCF Done:  E(RM062X) =  -348.152324362     A.U. after   12 cycles

 The electronic state is 1-A.
 Alpha  occ. eigenvalues --  -19.62627 -19.62307 -10.59284 -10.57887 -10.57542
 Alpha  occ. eigenvalues --  -10.52554 -10.52305  -1.16219  -1.14780  -0.89798
 Alpha  occ. eigenvalues --   -0.79737  -0.78134  -0.76684  -0.64254  -0.59214
 Alpha  occ. eigenvalues --   -0.57410  -0.55199  -0.53333  -0.51024  -0.49306
 Alpha  occ. eigenvalues --   -0.46182  -0.45348  -0.44607  -0.43807  -0.41879
 Alpha  occ. eigenvalues --   -0.41508  -0.37382  -0.36547  -0.31865
 Alpha virt. eigenvalues --    0.01108   0.02008   0.03100   0.03544   0.05201
 Alpha virt. eigenvalues --    0.05221   0.06027   0.06454   0.06810   0.08423
 Alpha virt. eigenvalues --    0.08878   0.09573   0.10294   0.11649   0.11721

 Mulliken charges:
               1
     1  O   -0.115021
     2  O   -0.346429
     3  C   -0.250011
     4  C   -0.093637
     5  C   -0.455526
     6  C   -0.502215
     7  C   -0.295820
     8  H    0.183150
     9  H    0.169857
    10  H    0.182143
    11  H    0.171727
    12  H    0.154035
    13  H    0.169301
    14  H    0.182699
    15  H    0.182831
    16  H    0.133958
    17  H    0.147392
    18  H    0.134929
    19  H    0.246638
 Sum of Mulliken charges =  -0.00000

 Dipole moment (field-independent basis, Debye):
    X=              0.2492    Y=              0.3681    Z=             -0.0302  Tot=              0.4455
 Quadrupole moment (field-independent basis, Debye-Ang):
   XX=            -44.2238   YY=            -45.9723   ZZ=            -45.9242
   XY=             -5.5411   XZ=              4.0058   YZ=              1.1779

  Exact polarizability:  75.345  -3.266  67.932   0.607   0.118  66.281
 Approx polarizability:  82.927  -2.242  79.107  -0.552  -0.918  78.851

                      1                      2                      3
                      A                      A                      A
 Frequencies --     89.3318               117.3460               190.1476
 Red. masses --      2.1875                 1.8798                 1.4799
 Frc consts  --      0.0103                 0.0153                 0.0315
 IR Inten    --      3.8694                 2.6266                 0.5733

                      4                      5                      6
                      A                      A                      A
 Frequencies --    229.6769               248.0500               274.3933
 Red. masses --      1.3645                 1.3355                 2.1444
 Frc consts  --      0.0424                 0.0484                 0.0951
 IR Inten    --      0.0377                22.4530                 3.2551

                      7                      8                      9
                      A                      A                      A
 Frequencies --    307.0560               326.8252               361.3365
 Red. masses --      1.4333                 1.2814                 2.0617
 Frc consts  --      0.0796                 0.0806                 0.1586
 IR Inten    --     55.3991                45.1452                15.7756

                     10                     11                     12
                      A                      A                      A
 Frequencies --    378.3904               435.5566               481.2322
 Red. masses --      2.3668                 3.1195                 2.7360
 Frc consts  --      0.1997                 0.3487                 0.3733
 IR Inten    --      0.3710                 6.3562                 7.3757

                     13                     14                     15
                      A                      A                      A
 Frequencies --    547.2785               759.5917               894.4463
 Red. masses --      3.1509                 3.5116                 2.1853
 Frc consts  --      0.5560                 1.1937                 1.0301
 IR Inten    --      4.6965                 1.8660                15.5365

                     16                     17                     18
                      A                      A                      A
 Frequencies --    916.2370               951.9400              1005.5697
 Red. masses --      1.5412                 1.2782                 1.7842
 Frc consts  --      0.7623                 0.6824                 1.0630
 IR Inten    --      5.4681                 2.1418                 0.8923

                     19                     20                     21
                      A                      A                      A
 Frequencies --   1025.6599              1117.1496              1140.7514
 Red. masses --      1.3735                 4.7602                 1.9473
 Frc consts  --      0.8513                 3.5003                 1.4930
 IR Inten    --      8.4349               116.4586                43.0942

                     22                     23                     24
                      A                      A                      A
 Frequencies --   1167.6056              1185.2264              1204.5199
 Red. masses --      1.8502                 1.3533                 1.6851
 Frc consts  --      1.4862                 1.1201                 1.4405
 IR Inten    --     24.1408                 3.0373                20.7729

                     25                     26                     27
                      A                      A                      A
 Frequencies --   1248.9858              1281.7443              1317.4204
 Red. masses --      2.3743                 2.8407                 2.0660
 Frc consts  --      2.1822                 2.7496                 2.1126
 IR Inten    --    130.0226                 7.8817                12.0607

                     28                     29                     30
                      A                      A                      A
 Frequencies --   1377.2374              1402.5809              1409.1134
 Red. masses --      1.2773                 1.4267                 1.2786
 Frc consts  --      1.4275                 1.6537                 1.4958
 IR Inten    --      6.3789                17.9659                22.6771

                     31                     32                     33
                      A                      A                      A
 Frequencies --   1426.9255              1483.7687              1488.5205
 Red. masses --      1.2993                 1.0810                 1.0639
 Frc consts  --      1.5587                 1.4021                 1.3888
 IR Inten    --      9.5040                 1.7098                 1.2931

                     34                     35                     36
                      A                      A                      A
 Frequencies --   1490.0608              1501.0964              1506.9627
 Red. masses --      1.0867                 1.0723                 1.0502
 Frc consts  --      1.4215                 1.4235                 1.4051
 IR Inten    --      1.0798                 2.4280                 2.6552

                     37                     38                     39
                      A                      A                      A
 Frequencies --   1510.1300              1521.2527              1525.6332
 Red. masses --      1.0696                 1.0693                 1.0573
 Frc consts  --      1.4371                 1.4579                 1.4499
 IR Inten    --     14.7980                 8.3337                 1.1496

                     40                     41                     42
                      A                      A                      A
 Frequencies --   3036.8161              3046.3520              3064.5749
 Red. masses --      1.0359                 1.0647                 1.0349
 Frc consts  --      5.6284                 5.8215                 5.7267
 IR Inten    --     35.2457                36.5140                21.0342

                     43                     44                     45
                      A                      A                      A
 Frequencies --   3069.3788              3090.7565              3119.0485
 Red. masses --      1.0373                 1.1036                 1.0982
 Frc consts  --      5.7577                 6.2116                 6.2950
 IR Inten    --      2.4422                41.8400                25.1885

                     46                     47                     48
                      A                      A                      A
 Frequencies --   3137.9264              3139.6171              3145.8444
 Red. masses --      1.1025                 1.1028                 1.1015
 Frc consts  --      6.3961                 6.4047                 6.4227
 IR Inten    --     17.3388                13.7862                12.9099

                     49                     50                     51
                      A                      A                      A
 Frequencies --   3147.1398              3156.5322              3908.1251
 Red. masses --      1.0994                 1.1006                 1.0664
 Frc consts  --      6.4159                 6.4608                 9.5964
 IR Inten    --     26.2150                12.3269                40.8752

 - Thermochemistry -
 -------------------
 Temperature   298.150 Kelvin.  Pressure   1.00000 Atm.
 Atom     1 has atomic number  8 and mass  15.99491

 Molecular mass:   104.08373 amu.
 Principal axes and moments of inertia in atomic units:
                           1         2         3
     Eigenvalues --   503.76206 931.907491023.27880
           X            0.99757  -0.06431   0.02685
           Y            0.06381   0.99778   0.01906
           Z           -0.02801  -0.01730   0.99946
 This molecule is an asymmetric top.
 Rotational symmetry number  1.
 Warning -- assumption of classical behavior for rotation
           may cause significant error
 Rotational temperatures (Kelvin)      0.17193     0.09294     0.08464
 Rotational constants (GHZ):           3.58253     1.93661     1.76368
 Zero-point vibrational energy     448054.5 (Joules/Mol)
                                  107.08760 (Kcal/Mol)
 Warning -- explicit consideration of  13 degrees of freedom as
           vibrations may cause significant error
 Vibrational temperatures:    128.53   168.83   273.58   330.45   356.89
          (Kelvin)            394.79   441.79   470.23   519.88   544.42
                              626.67   692.39   787.41  1092.88  1286.91
                             1318.26  1369.63  1446.79  1475.70  1607.33
                             1641.29  1679.92  1705.28  1733.04  1797.01
                             1844.14  1895.47  1981.54  2018.00  2027.40
                             2053.03  2134.81  2141.65  2143.87  2159.74
                             2168.18  2172.74  2188.74  2195.05  4369.30
                             4383.02  4409.24  4416.15  4446.91  4487.62
                             4514.78  4517.21  4526.17  4528.03  4541.55
                             5622.92

 Zero-point correction=                           0.170655 (Hartree/Particle)
 Thermal correction to Energy=                    0.179677
 Thermal correction to Enthalpy=                  0.180621
 Thermal correction to Gibbs Free Energy=         0.137880
 Sum of electronic and zero-point Energies=           -347.981669
 Sum of electronic and thermal Energies=              -347.972647
 Sum of electronic and thermal Enthalpies=            -347.971703
 Sum of electronic and thermal Free Energies=         -348.014444

                     E (Thermal)             CV                S
                      KCal/Mol        Cal/Mol-Kelvin    Cal/Mol-Kelvin
 Total                  112.749             32.670             89.955
 Electronic               0.000              0.000              0.000
 Translational            0.889              2.981             39.837
 Rotational               0.889              2.981             27.665
 Vibrational            110.972             26.708             22.453
 Vibration     1          0.602              1.957              3.675
 Vibration     2          0.608              1.935              3.144
 Vibration     3          0.633              1.853              2.226
 Vibration     4          0.652              1.796              1.881
 Vibration     5          0.662              1.766              1.744
 Vibration     6          0.677              1.721              1.568
 Vibration     7          0.697              1.660              1.378
 Vibration     8          0.710              1.622              1.276
 Vibration     9          0.736              1.552              1.116
 Vibration    10          0.749              1.516              1.046
 Vibration    11          0.796              1.393              0.841
 Vibration    12          0.838              1.292              0.707
 Vibration    13          0.902              1.146              0.550

 Normal termination of Gaussian 16 at Tue Feb 19 18:16:35 2019.
