 Gaussian 16, Revision A.03,
 Gaussian 16:  EM64L-G16RevA.03 25-Dec-2016

 ----------------------------------------------
 #p m062x/6-311+g(2df,2p) Opt=(CalcFC,ModRedun)
 ----------------------------------------------

 --------------------------------------
 Gaussian input prepared with RMG/Hands
 --------------------------------------
 Symbolic Z-matrix:
 Charge =  0 Multiplicity = 1

 SCF Done:  E(RM062X) =  -348.152324362     A.U. after   12 cycles

  Exact polarizability:   0.000   0.000   0.000   0.000   0.000   0.000
 Approx polarizability:  82.927  -2.242  79.107  -0.552  -0.918  78.851

 SCF Done:  E(RM062X) =  -348.152324482     A.U. after    7 cycles
 Optimization completed.
    -- Stationary point found.
 SCF Done:  E(RM062X) =  -348.151185045     A.U. after   10 cycles
 SCF Done:  E(RM062X) =  -348.152220325     A.U. after   10 cycles
 SCF Done:  E(RM062X) =  -348.152223488     A.U. after    8 cycles
 SCF Done:  E(RM062X) =  -348.152223507     A.U. after    6 cycles
 Optimization completed.
 SCF Done:  E(RM062X) =  -348.150917345     A.U. after   10 cycles
 SCF Done:  E(RM062X) =  -348.151967438     A.U. after   10 cycles
 SCF Done:  E(RM062X) =  -348.151971067     A.U. after    8 cycles
 SCF Done:  E(RM062X) =  -348.150604473     A.U. after   10 cycles
 SCF Done:  E(RM062X) =  -348.151795055     A.U. after   11 cycles
 SCF Done:  E(RM062X) =  -348.151796737     A.U. after    8 cycles
 SCF Done:  E(RM062X) =  -348.151796802     A.U. after    6 cycles
 SCF Done:  E(RM062X) =  -348.151140316     A.U. after   11 cycles
 SCF Done:  E(RM062X) =  -348.152191731     A.U. after   10 cycles
 SCF Done:  E(RM062X) =  -348.152193287     A.U. after    8 cycles
    -- Stationary point found.
 SCF Done:  E(RM062X) =  -348.151289770     A.U. after   10 cycles
 SCF Done:  E(RM062X) =  -348.152322172     A.U. after   10 cycles
 SCF Done:  E(RM062X) =  -348.152324298     A.U. after    9 cycles
 SCF Done:  E(RM062X) =  -348.152324480     A.U. after    8 cycles
 Optimization completed.
    -- Stationary point found.

                         Standard orientation:
 ---------------------------------------------------------------------
 Center     Atomic      Atomic             Coordinates (Angstroms)
 Number     Number       Type             X           Y           Z
 ---------------------------------------------------------------------
      1          8           0        1.275090    0.235555   -0.631187
      2          8           0       -2.138904   -0.902646    0.078916
      3          6           0        0.001015    0.311942    0.003820
      4          6           0       -0.823810   -0.905175   -0.438766
      5          6           0       -0.618675    1.591272   -0.539154
      6          6           0        0.104991    0.372880    1.522860
      7          6           0        2.210575   -0.674278   -0.104326
      8          1           0       -0.821058   -0.943131   -1.532469
      9          1           0       -0.362903   -1.821167   -0.069672
     10          1           0       -0.669957    1.549965   -1.627546
     11          1           0       -0.003607    2.445132   -0.258890
     12          1           0       -1.618966    1.746009   -0.134635
     13          1           0        0.506740   -0.551440    1.937845
     14          1           0       -0.886100    0.519915    1.947413
     15          1           0        0.745925    1.201900    1.824485
     16          1           0        1.809809   -1.687399   -0.014168
     17          1           0        3.045114   -0.696421   -0.801272
     18          1           0        2.580486   -0.355945    0.873367
     19          1           0       -2.659555   -0.250541   -0.392899
 ---------------------------------------------------------------------

 The electronic state is 1-A.
 Alpha  occ. eigenvalues --  -19.62627 -19.62307 -10.59284 -10.57888 -10.57543
 Alpha  occ. eigenvalues --  -10.52555 -10.52304  -1.16219  -1.14781  -0.89798
 Alpha  occ. eigenvalues --   -0.79740  -0.78132  -0.76684  -0.64254  -0.59213
 Alpha  occ. eigenvalues --   -0.57412  -0.55198  -0.53333  -0.51023  -0.49309
 Alpha  occ. eigenvalues --   -0.46180  -0.45346  -0.44608  -0.43804  -0.41881
 Alpha  occ. eigenvalues --   -0.41510  -0.37381  -0.36548  -0.31864
 Alpha virt. eigenvalues --    0.01109   0.02008   0.03100   0.03545   0.05200
 Alpha virt. eigenvalues --    0.05221   0.06027   0.06454   0.06809   0.08422
 Alpha virt. eigenvalues --    0.08877   0.09573   0.10294   0.11648   0.11721

 Mulliken charges:
               1
     1  O   -0.114967
     2  O   -0.346569
     3  C   -0.248961
     4  C   -0.093663
     5  C   -0.456219
     6  C   -0.502538
     7  C   -0.295869
     8  H    0.183195
     9  H    0.169861
    10  H    0.182193
    11  H    0.171725
    12  H    0.154067
    13  H    0.169210
    14  H    0.182750
    15  H    0.182808
    16  H    0.133973
    17  H    0.147392
    18  H    0.134943
    19  H    0.246670
 Sum of Mulliken charges =  -0.00000

 Dipole moment (field-independent basis, Debye):
    X=              0.2505    Y=              0.3661    Z=             -0.0311  Tot=              0.4447
 Quadrupole moment (field-independent basis, Debye-Ang):
   XX=            -44.2281   YY=            -45.9718   ZZ=            -45.9202
   XY=             -5.5397   XZ=              4.0073   YZ=              1.1765

 Normal termination of Gaussian 16 at Fri Feb  8 15:52:42 2019.
