 Gaussian 16, Revision A.03,
 Gaussian 16:  EM64L-G16RevA.03 25-Dec-2016

 --------------------------------------------------------------------
 #p m062x/6-311+g(2df,2p) opt=(calcfc,maxcycle=1000) freq iop(7/33=1)
 --------------------------------------------------------------------

 ------------------------------
 Gaussian input prepared by ASE
 ------------------------------
 Symbolic Z-matrix:
 Charge =  0 Multiplicity = 1

 SCF Done:  E(RM062X) =  -348.118659559     A.U. after   12 cycles
 SCF Done:  E(RM062X) =  -348.139978707     A.U. after   13 cycles
 SCF Done:  E(RM062X) =  -348.137520468     A.U. after   12 cycles
 SCF Done:  E(RM062X) =  -348.143303896     A.U. after   11 cycles
 SCF Done:  E(RM062X) =  -348.147510607     A.U. after   11 cycles
 SCF Done:  E(RM062X) =  -348.150346690     A.U. after   11 cycles
 SCF Done:  E(RM062X) =  -348.151266212     A.U. after   10 cycles
 SCF Done:  E(RM062X) =  -348.151890151     A.U. after   10 cycles
 SCF Done:  E(RM062X) =  -348.151983131     A.U. after    9 cycles
 SCF Done:  E(RM062X) =  -348.152007226     A.U. after    9 cycles
 SCF Done:  E(RM062X) =  -348.152097364     A.U. after   10 cycles
 SCF Done:  E(RM062X) =  -348.152066663     A.U. after    9 cycles
 SCF Done:  E(RM062X) =  -348.151971953     A.U. after   10 cycles
 SCF Done:  E(RM062X) =  -348.152316552     A.U. after   10 cycles
 SCF Done:  E(RM062X) =  -348.152319947     A.U. after    8 cycles
 SCF Done:  E(RM062X) =  -348.152321321     A.U. after    8 cycles
 SCF Done:  E(RM062X) =  -348.152322946     A.U. after    8 cycles
 SCF Done:  E(RM062X) =  -348.152323951     A.U. after    7 cycles
 SCF Done:  E(RM062X) =  -348.152324368     A.U. after    7 cycles
 Optimization completed.
    -- Stationary point found.
 Normal termination of Gaussian 16 at Thu Feb 21 15:26:55 2019.

 ----------------------------------------------------------------------
 #P Geom=AllCheck Guess=TCheck SCRF=Check Test GenChk RM062X/6-311+G(2d
 f,2p) Freq
 ----------------------------------------------------------------------

 Structure from the checkpoint file:  "/scratch/underkoffler.c/gaussian_scratch/Gau-5647.chk"
 ------------------------------
 Gaussian input prepared by ASE
 ------------------------------
 Charge =  0 Multiplicity = 1

                         Standard orientation:
 ---------------------------------------------------------------------
 Center     Atomic      Atomic             Coordinates (Angstroms)
 Number     Number       Type             X           Y           Z
 ---------------------------------------------------------------------
      1          8           0        1.275183    0.234934   -0.631164
      2          8           0       -2.138658   -0.903266    0.079601
      3          6           0        0.001022    0.312060    0.003570
      4          6           0       -0.823973   -0.904954   -0.439144
      5          6           0       -0.618047    1.591529   -0.539786
      6          6           0        0.104640    0.373950    1.522578
      7          6           0        2.210190   -0.674962   -0.103606
      8          1           0       -0.822140   -0.941976   -1.532873
      9          1           0       -0.362467   -1.821131   -0.071339
     10          1           0       -0.669355    1.550065   -1.628158
     11          1           0       -0.002631    2.445168   -0.259631
     12          1           0       -1.618306    1.746752   -0.135337
     13          1           0        0.505275   -0.550463    1.938457
     14          1           0       -0.886286    0.522527    1.946903
     15          1           0        0.746517    1.202547    1.823433
     16          1           0        1.809125   -1.687902   -0.012773
     17          1           0        3.044776   -0.697763   -0.800460
     18          1           0        2.580167   -0.355974    0.873881
     19          1           0       -2.659872   -0.250933   -0.391271
 ---------------------------------------------------------------------

 SCF Done:  E(RM062X) =  -348.152324368     A.U. after    1 cycles

 The electronic state is 1-A.
 Alpha  occ. eigenvalues --  -19.62627 -19.62307 -10.59284 -10.57888 -10.57543
 Alpha  occ. eigenvalues --  -10.52554 -10.52305  -1.16219  -1.14780  -0.89798
 Alpha  occ. eigenvalues --   -0.79737  -0.78133  -0.76684  -0.64254  -0.59214
 Alpha  occ. eigenvalues --   -0.57410  -0.55199  -0.53333  -0.51024  -0.49306
 Alpha  occ. eigenvalues --   -0.46182  -0.45348  -0.44607  -0.43807  -0.41879
 Alpha  occ. eigenvalues --   -0.41508  -0.37382  -0.36547  -0.31865
 Alpha virt. eigenvalues --    0.01108   0.02008   0.03100   0.03544   0.05201
 Alpha virt. eigenvalues --    0.05221   0.06027   0.06454   0.06810   0.08423
 Alpha virt. eigenvalues --    0.08878   0.09573   0.10294   0.11649   0.11721

 Mulliken charges:
               1
     1  O   -0.115010
     2  O   -0.346435
     3  C   -0.249968
     4  C   -0.093648
     5  C   -0.455565
     6  C   -0.502212
     7  C   -0.295828
     8  H    0.183153
     9  H    0.169857
    10  H    0.182147
    11  H    0.171731
    12  H    0.154042
    13  H    0.169295
    14  H    0.182700
    15  H    0.182829
    16  H    0.133953
    17  H    0.147392
    18  H    0.134927
    19  H    0.246640
 Sum of Mulliken charges =   0.00000

 Dipole moment (field-independent basis, Debye):
    X=              0.2491    Y=              0.3679    Z=             -0.0304  Tot=              0.4454
 Quadrupole moment (field-independent basis, Debye-Ang):
   XX=            -44.2239   YY=            -45.9723   ZZ=            -45.9240
   XY=             -5.5409   XZ=              4.0062   YZ=              1.1779

  Exact polarizability:  75.345  -3.266  67.932   0.607   0.118  66.281
 Approx polarizability:  82.927  -2.242  79.107  -0.552  -0.918  78.851

                      1                      2                      3
                      A                      A                      A
 Frequencies --     89.2890               117.3079               190.1556
 Red. masses --      2.1868                 1.8798                 1.4801
 Frc consts  --      0.0103                 0.0152                 0.0315
 IR Inten    --      3.8672                 2.6279                 0.5738

                      4                      5                      6
                      A                      A                      A
 Frequencies --    229.6557               248.0368               274.3911
 Red. masses --      1.3646                 1.3354                 2.1447
 Frc consts  --      0.0424                 0.0484                 0.0951
 IR Inten    --      0.0377                22.4698                 3.2606

                      7                      8                      9
                      A                      A                      A
 Frequencies --    307.0278               326.8077               361.3299
 Red. masses --      1.4333                 1.2814                 2.0620
 Frc consts  --      0.0796                 0.0806                 0.1586
 IR Inten    --     55.4131                45.1308                15.7569

                     10                     11                     12
                      A                      A                      A
 Frequencies --    378.3777               435.5551               481.2282
 Red. masses --      2.3669                 3.1195                 2.7360
 Frc consts  --      0.1997                 0.3487                 0.3733
 IR Inten    --      0.3720                 6.3551                 7.3748

                     13                     14                     15
                      A                      A                      A
 Frequencies --    547.2770               759.5916               894.4495
 Red. masses --      3.1509                 3.5115                 2.1853
 Frc consts  --      0.5560                 1.1937                 1.0301
 IR Inten    --      4.6957                 1.8665                15.5331

                     16                     17                     18
                      A                      A                      A
 Frequencies --    916.2350               951.9355              1005.5675
 Red. masses --      1.5412                 1.2782                 1.7842
 Frc consts  --      0.7623                 0.6824                 1.0629
 IR Inten    --      5.4682                 2.1416                 0.8931

                     19                     20                     21
                      A                      A                      A
 Frequencies --   1025.6607              1117.1497              1140.7585
 Red. masses --      1.3735                 4.7607                 1.9471
 Frc consts  --      0.8513                 3.5006                 1.4929
 IR Inten    --      8.4335               116.4545                43.0926

                     22                     23                     24
                      A                      A                      A
 Frequencies --   1167.6084              1185.2217              1204.5234
 Red. masses --      1.8504                 1.3533                 1.6852
 Frc consts  --      1.4863                 1.1201                 1.4405
 IR Inten    --     24.1401                 3.0383                20.7781

                     25                     26                     27
                      A                      A                      A
 Frequencies --   1248.9842              1281.7456              1317.4191
 Red. masses --      2.3743                 2.8406                 2.0660
 Frc consts  --      2.1822                 2.7495                 2.1126
 IR Inten    --    130.0320                 7.8822                12.0587

                     28                     29                     30
                      A                      A                      A
 Frequencies --   1377.2391              1402.5799              1409.1151
 Red. masses --      1.2774                 1.4267                 1.2786
 Frc consts  --      1.4275                 1.6537                 1.4958
 IR Inten    --      6.3802                17.9667                22.6756

                     31                     32                     33
                      A                      A                      A
 Frequencies --   1426.9268              1483.7696              1488.5214
 Red. masses --      1.2993                 1.0809                 1.0638
 Frc consts  --      1.5587                 1.4021                 1.3888
 IR Inten    --      9.5027                 1.7087                 1.2927

                     34                     35                     36
                      A                      A                      A
 Frequencies --   1490.0632              1501.0950              1506.9671
 Red. masses --      1.0867                 1.0723                 1.0502
 Frc consts  --      1.4216                 1.4235                 1.4051
 IR Inten    --      1.0810                 2.4298                 2.6526

                     37                     38                     39
                      A                      A                      A
 Frequencies --   1510.1284              1521.2513              1525.6295
 Red. masses --      1.0696                 1.0693                 1.0573
 Frc consts  --      1.4371                 1.4579                 1.4499
 IR Inten    --     14.7976                 8.3341                 1.1495

                     40                     41                     42
                      A                      A                      A
 Frequencies --   3036.8262              3046.3392              3064.5784
 Red. masses --      1.0359                 1.0647                 1.0349
 Frc consts  --      5.6285                 5.8214                 5.7267
 IR Inten    --     35.2446                36.5204                21.0308

                     43                     44                     45
                      A                      A                      A
 Frequencies --   3069.3842              3090.7684              3119.0501
 Red. masses --      1.0373                 1.1036                 1.0982
 Frc consts  --      5.7577                 6.2117                 6.2949
 IR Inten    --      2.4462                41.8378                25.1903

                     46                     47                     48
                      A                      A                      A
 Frequencies --   3137.9351              3139.6248              3145.8343
 Red. masses --      1.1025                 1.1028                 1.1015
 Frc consts  --      6.3961                 6.4047                 6.4226
 IR Inten    --     17.3340                13.7748                12.8830

                     49                     50                     51
                      A                      A                      A
 Frequencies --   3147.1060              3156.5263              3908.1046
 Red. masses --      1.0995                 1.1006                 1.0664
 Frc consts  --      6.4158                 6.4608                 9.5963
 IR Inten    --     26.2435                12.3376                40.8770

 - Thermochemistry -
 -------------------
 Temperature   298.150 Kelvin.  Pressure   1.00000 Atm.
 Atom     1 has atomic number  8 and mass  15.99491

 Molecular mass:   104.08373 amu.
 Principal axes and moments of inertia in atomic units:
                           1         2         3
     Eigenvalues --   503.76231 931.907321023.28232
           X            0.99757  -0.06431   0.02685
           Y            0.06381   0.99778   0.01906
           Z           -0.02801  -0.01730   0.99946
 This molecule is an asymmetric top.
 Rotational symmetry number  1.
 Warning -- assumption of classical behavior for rotation
           may cause significant error
 Rotational temperatures (Kelvin)      0.17193     0.09294     0.08464
 Rotational constants (GHZ):           3.58253     1.93661     1.76368
 Zero-point vibrational energy     448053.3 (Joules/Mol)
                                  107.08730 (Kcal/Mol)
 Warning -- explicit consideration of  13 degrees of freedom as
           vibrations may cause significant error
 Vibrational temperatures:    128.47   168.78   273.59   330.42   356.87
          (Kelvin)            394.79   441.74   470.20   519.87   544.40
                              626.67   692.38   787.41  1092.88  1286.91
                             1318.26  1369.62  1446.79  1475.70  1607.33
                             1641.30  1679.93  1705.27  1733.04  1797.01
                             1844.15  1895.47  1981.54  2018.00  2027.40
                             2053.03  2134.81  2141.65  2143.87  2159.74
                             2168.19  2172.74  2188.74  2195.04  4369.32
                             4383.00  4409.24  4416.16  4446.93  4487.62
                             4514.79  4517.22  4526.15  4527.98  4541.54
                             5622.89

 Zero-point correction=                           0.170654 (Hartree/Particle)
 Thermal correction to Energy=                    0.179677
 Thermal correction to Enthalpy=                  0.180621
 Thermal correction to Gibbs Free Energy=         0.137879
 Sum of electronic and zero-point Energies=           -347.981670
 Sum of electronic and thermal Energies=              -347.972648
 Sum of electronic and thermal Enthalpies=            -347.971703
 Sum of electronic and thermal Free Energies=         -348.014445

                     E (Thermal)             CV                S
                      KCal/Mol        Cal/Mol-Kelvin    Cal/Mol-Kelvin
 Total                  112.749             32.670             89.957
 Electronic               0.000              0.000              0.000
 Translational            0.889              2.981             39.837
 Rotational               0.889              2.981             27.665
 Vibrational            110.971             26.708             22.455
 Vibration     1          0.602              1.957              3.676
 Vibration     2          0.608              1.935              3.144
 Vibration     3          0.633              1.853              2.226
 Vibration     4          0.652              1.796              1.882
 Vibration     5          0.662              1.766              1.744
 Vibration     6          0.677              1.721              1.568
 Vibration     7          0.697              1.660              1.378
 Vibration     8          0.710              1.622              1.276
 Vibration     9          0.736              1.552              1.116
 Vibration    10          0.749              1.516              1.046
 Vibration    11          0.796              1.393              0.841
 Vibration    12          0.838              1.292              0.707
 Vibration    13          0.902              1.146              0.550

                           ! Non-Optimized Parameters !
 Normal termination of Gaussian 16 at Thu Feb 21 15:36:07 2019.
