 Gaussian 16, Revision A.03,
 Gaussian 16:  EM64L-G16RevA.03 25-Dec-2016

 ----------------------------------------------------------------------
 #p m062x/6-311+g(2df,2p) opt=(calcfc,verytight,gdiis,maxcycles=900) fr
 eq iop(7/33=1,2/16=3)
 ----------------------------------------------------------------------

 ------------------------------
 Gaussian input prepared by ASE
 ------------------------------
 Symbolic Z-matrix:
 Charge =  0 Multiplicity = 2

 SCF Done:  E(UM062X) =  -232.938074358     A.U. after   15 cycles
 SCF Done:  E(UM062X) =  -232.950313415     A.U. after   12 cycles
 SCF Done:  E(UM062X) =  -232.951142727     A.U. after   14 cycles
 SCF Done:  E(UM062X) =  -232.952069960     A.U. after   12 cycles
 SCF Done:  E(UM062X) =  -232.952241102     A.U. after   11 cycles
 SCF Done:  E(UM062X) =  -232.952329206     A.U. after   12 cycles
 SCF Done:  E(UM062X) =  -232.952344968     A.U. after    9 cycles
 SCF Done:  E(UM062X) =  -232.952360380     A.U. after   10 cycles
 SCF Done:  E(UM062X) =  -232.952380564     A.U. after   10 cycles
 SCF Done:  E(UM062X) =  -232.952408382     A.U. after   11 cycles
 SCF Done:  E(UM062X) =  -232.952435581     A.U. after   11 cycles
 SCF Done:  E(UM062X) =  -232.952435837     A.U. after    8 cycles
 SCF Done:  E(UM062X) =  -232.952435859     A.U. after    7 cycles
 SCF Done:  E(UM062X) =  -232.952435914     A.U. after    8 cycles
 SCF Done:  E(UM062X) =  -232.952435911     A.U. after    6 cycles
 SCF Done:  E(UM062X) =  -232.952435914     A.U. after    6 cycles
 SCF Done:  E(UM062X) =  -232.952435914     A.U. after    4 cycles
 SCF Done:  E(UM062X) =  -232.952435914     A.U. after    3 cycles
 SCF Done:  E(UM062X) =  -232.952435914     A.U. after    2 cycles
 Optimization completed.
    -- Stationary point found.
 Normal termination of Gaussian 16 at Sat Mar  9 02:01:57 2019.

 ----------------------------------------------------------------------
 #P Geom=AllCheck Guess=TCheck SCRF=Check Test GenChk UM062X/6-311+G(2d
 f,2p) Freq
 ----------------------------------------------------------------------

 Structure from the checkpoint file:  "/scratch/underkoffler.c/gaussian_scratch/Gau-11874.chk"
 ------------------------------
 Gaussian input prepared by ASE
 ------------------------------
 Charge =  0 Multiplicity = 2

                         Standard orientation:
 ---------------------------------------------------------------------
 Center     Atomic      Atomic             Coordinates (Angstroms)
 Number     Number       Type             X           Y           Z
 ---------------------------------------------------------------------
      1          8           0       -0.841799    0.072455    0.708449
      2          6           0        0.556185    0.089472    0.457313
      3          6           0        1.054009   -1.194299   -0.199914
      4          6           0       -1.649922   -0.091340   -0.432119
      5          6           0        0.959064    1.306012   -0.302409
      6          1           0        0.986224    0.140254    1.465405
      7          1           0        2.143415   -1.211984   -0.192287
      8          1           0        0.725932   -1.263188   -1.237027
      9          1           0        0.687661   -2.062559    0.346059
     10          1           0       -1.378393    0.612799   -1.225001
     11          1           0       -1.590402   -1.108418   -0.829555
     12          1           0       -2.674398    0.102224   -0.123634
     13          1           0        1.844043    1.305291   -0.921009
     14          1           0        0.474293    2.246876   -0.087770
 ---------------------------------------------------------------------

 SCF Done:  E(UM062X) =  -232.952435914     A.U. after    1 cycles

 The electronic state is 2-A.
 Alpha  occ. eigenvalues --  -19.61928 -10.59154 -10.57012 -10.54468 -10.52756
 Alpha  occ. eigenvalues --   -1.15605  -0.88449  -0.78558  -0.77495  -0.65387
 Alpha  occ. eigenvalues --   -0.57128  -0.54829  -0.54057  -0.48955  -0.48203
 Alpha  occ. eigenvalues --   -0.46210  -0.43476  -0.42585  -0.37944  -0.33209
 Alpha  occ. eigenvalues --   -0.27269
 Alpha virt. eigenvalues --    0.01545   0.03010   0.03461   0.04052   0.06127
 Alpha virt. eigenvalues --    0.06419   0.06812   0.07467   0.09016   0.09625
 Alpha virt. eigenvalues --    0.10750   0.11355   0.12615   0.13293   0.14916

  Beta  occ. eigenvalues --  -19.61898 -10.59218 -10.56998 -10.53793 -10.52733
  Beta  occ. eigenvalues --   -1.15467  -0.87482  -0.78324  -0.74974  -0.64300
  Beta  occ. eigenvalues --   -0.56433  -0.54214  -0.53698  -0.48410  -0.47749
  Beta  occ. eigenvalues --   -0.46090  -0.42944  -0.42115  -0.37491  -0.32971
  Beta virt. eigenvalues --   -0.03237   0.01220   0.02958   0.03324   0.03757
  Beta virt. eigenvalues --    0.06104   0.06439   0.06691   0.07390   0.09074
  Beta virt. eigenvalues --    0.09590   0.10735   0.11521   0.12220   0.12838

 Mulliken charges and spin densities:
               1          2
     1  O   -0.148498  -0.007128
     2  C   -0.019919   0.007376
     3  C   -0.454240   0.004537
     4  C   -0.314033   0.031122
     5  C   -0.448447   1.054636
     6  H    0.152050   0.035392
     7  H    0.146671  -0.002161
     8  H    0.152670  -0.003986
     9  H    0.162708  -0.001456
    10  H    0.130573  -0.018665
    11  H    0.127415  -0.002799
    12  H    0.140622  -0.001799
    13  H    0.179953  -0.044347
    14  H    0.192475  -0.050724
 Sum of Mulliken charges =  -0.00000   1.00000

 Dipole moment (field-independent basis, Debye):
    X=              0.7107    Y=             -0.2210    Z=             -1.0907  Tot=              1.3205
 Quadrupole moment (field-independent basis, Debye-Ang):
   XX=            -31.1661   YY=            -32.5044   ZZ=            -34.4294
   XY=             -0.0243   XZ=              1.7784   YZ=             -0.0895

  Exact polarizability:  57.895   0.609  54.433   0.781  -0.531  48.806
 Approx polarizability:  62.000   0.539  59.142   0.254  -0.535  59.559

                      1                      2                      3
                      A                      A                      A
 Frequencies --    104.8138               130.6171               195.0042
 Red. masses --      1.1806                 1.4227                 1.2294
 Frc consts  --      0.0076                 0.0143                 0.0275
 IR Inten    --      2.6725                 2.6416                 2.6029

                      4                      5                      6
                      A                      A                      A
 Frequencies --    276.6271               319.3507               374.4242
 Red. masses --      1.2659                 1.9913                 2.0506
 Frc consts  --      0.0571                 0.1197                 0.1694
 IR Inten    --      0.8319                 0.9588                 2.9318

                      7                      8                      9
                      A                      A                      A
 Frequencies --    424.6531               481.6315               619.5992
 Red. masses --      2.7844                 1.4424                 2.5771
 Frc consts  --      0.2958                 0.1971                 0.5829
 IR Inten    --     11.2096                26.3874                10.0095

                     10                     11                     12
                      A                      A                      A
 Frequencies --    830.5425               912.0233               945.9292
 Red. masses --      2.8460                 1.5462                 1.8615
 Frc consts  --      1.1567                 0.7578                 0.9813
 IR Inten    --      8.7324                 6.9457                 9.7607

                     13                     14                     15
                      A                      A                      A
 Frequencies --   1037.7517              1104.0053              1160.3006
 Red. masses --      1.7389                 2.0422                 2.0769
 Frc consts  --      1.1034                 1.4665                 1.6474
 IR Inten    --      2.4528                34.0463                 8.9930

                     16                     17                     18
                      A                      A                      A
 Frequencies --   1183.1853              1209.1668              1243.8662
 Red. masses --      1.3012                 1.9808                 2.4422
 Frc consts  --      1.0732                 1.7063                 2.2263
 IR Inten    --      3.4018                50.6486                90.1725

                     19                     20                     21
                      A                      A                      A
 Frequencies --   1335.8167              1377.4771              1402.8225
 Red. masses --      1.5014                 1.2458                 1.3088
 Frc consts  --      1.5784                 1.3927                 1.5176
 IR Inten    --      9.8430                 4.3422                16.1042

                     22                     23                     24
                      A                      A                      A
 Frequencies --   1453.9717              1477.7208              1494.6981
 Red. masses --      1.2038                 1.1378                 1.0506
 Frc consts  --      1.4993                 1.4639                 1.3828
 IR Inten    --      8.2100                 0.7294                 4.0695

                     25                     26                     27
                      A                      A                      A
 Frequencies --   1498.6870              1511.4881              1523.4945
 Red. masses --      1.0550                 1.0650                 1.0472
 Frc consts  --      1.3961                 1.4335                 1.4321
 IR Inten    --      3.9737                 6.8352                 4.7713

                     28                     29                     30
                      A                      A                      A
 Frequencies --   3006.3048              3027.3043              3067.6364
 Red. masses --      1.0804                 1.0367                 1.0376
 Frc consts  --      5.7528                 5.5980                 5.7529
 IR Inten    --     25.0343                30.5365                 6.5740

                     31                     32                     33
                      A                      A                      A
 Frequencies --   3080.7918              3140.3257              3149.0313
 Red. masses --      1.1001                 1.1017                 1.1016
 Frc consts  --      6.1519                 6.4014                 6.4363
 IR Inten    --     42.7371                22.2737                 5.7814

                     34                     35                     36
                      A                      A                      A
 Frequencies --   3149.7776              3170.3477              3278.4921
 Red. masses --      1.0999                 1.0511                 1.1197
 Frc consts  --      6.4290                 6.2245                 7.0910
 IR Inten    --     25.3774                 5.6012                 4.5735

 - Thermochemistry -
 -------------------
 Temperature   298.150 Kelvin.  Pressure   1.00000 Atm.
 Atom     1 has atomic number  8 and mass  15.99491

 Molecular mass:    73.06534 amu.
 Principal axes and moments of inertia in atomic units:
                           1         2         3
     Eigenvalues --   267.14322 411.44496 527.54827
           X            0.99951  -0.01725   0.02615
           Y            0.01720   0.99985   0.00224
           Z           -0.02618  -0.00178   0.99966
 This molecule is an asymmetric top.
 Rotational symmetry number  1.
 Rotational temperatures (Kelvin)      0.32422     0.21051     0.16418
 Rotational constants (GHZ):           6.75571     4.38635     3.42100
 Zero-point vibrational energy     321195.4 (Joules/Mol)
                                   76.76755 (Kcal/Mol)
 Warning -- explicit consideration of   9 degrees of freedom as
           vibrations may cause significant error
 Vibrational temperatures:    150.80   187.93   280.57   398.00   459.47
          (Kelvin)            538.71   610.98   692.96   891.47  1194.97
                             1312.20  1360.98  1493.09  1588.42  1669.41
                             1702.34  1739.72  1789.65  1921.94  1981.88
                             2018.35  2091.94  2126.11  2150.54  2156.28
                             2174.69  2191.97  4325.40  4355.62  4413.64
                             4432.57  4518.23  4530.75  4531.83  4561.42
                             4717.02

 Zero-point correction=                           0.122337 (Hartree/Particle)
 Thermal correction to Energy=                    0.129343
 Thermal correction to Enthalpy=                  0.130288
 Thermal correction to Gibbs Free Energy=         0.091798
 Sum of electronic and zero-point Energies=           -232.830099
 Sum of electronic and thermal Energies=              -232.823093
 Sum of electronic and thermal Enthalpies=            -232.822148
 Sum of electronic and thermal Free Energies=         -232.860638

                     E (Thermal)             CV                S
                      KCal/Mol        Cal/Mol-Kelvin    Cal/Mol-Kelvin
 Total                   81.164             24.031             81.008
 Electronic               0.000              0.000              1.377
 Translational            0.889              2.981             38.783
 Rotational               0.889              2.981             25.564
 Vibrational             79.387             18.069             15.284
 Vibration     1          0.605              1.945              3.363
 Vibration     2          0.612              1.923              2.937
 Vibration     3          0.636              1.847              2.180
 Vibration     4          0.678              1.717              1.554
 Vibration     5          0.705              1.637              1.313
 Vibration     6          0.746              1.525              1.062
 Vibration     7          0.787              1.417              0.876
 Vibration     8          0.838              1.291              0.706
 Vibration     9          0.980              0.991              0.417

                           ! Non-Optimized Parameters !
 Normal termination of Gaussian 16 at Sat Mar  9 02:07:30 2019.
