 Gaussian 16, Revision A.03,
 Gaussian 16:  EM64L-G16RevA.03 25-Dec-2016

 ----------------------------------------------------------------------
 #p m062x/6-311+g(2df,2p) opt=(calcfc,verytight,gdiis,maxcycles=900) fr
 eq iop(7/33=1,2/16=3)
 ----------------------------------------------------------------------

 ------------------------------
 Gaussian input prepared by ASE
 ------------------------------
 Symbolic Z-matrix:
 Charge =  0 Multiplicity = 2

 SCF Done:  E(UM062X) =  -232.948610449     A.U. after   14 cycles
 SCF Done:  E(UM062X) =  -232.960666057     A.U. after   13 cycles
 SCF Done:  E(UM062X) =  -232.963141910     A.U. after   14 cycles
 SCF Done:  E(UM062X) =  -232.964824701     A.U. after   13 cycles
 SCF Done:  E(UM062X) =  -232.965120803     A.U. after   10 cycles
 SCF Done:  E(UM062X) =  -232.965176666     A.U. after   11 cycles
 SCF Done:  E(UM062X) =  -232.965194082     A.U. after   10 cycles
 SCF Done:  E(UM062X) =  -232.965195772     A.U. after    9 cycles
 SCF Done:  E(UM062X) =  -232.965196013     A.U. after    8 cycles
 SCF Done:  E(UM062X) =  -232.965196209     A.U. after    9 cycles
 SCF Done:  E(UM062X) =  -232.965196237     A.U. after    7 cycles
 SCF Done:  E(UM062X) =  -232.965196237     A.U. after    4 cycles
 SCF Done:  E(UM062X) =  -232.965196237     A.U. after    3 cycles
 SCF Done:  E(UM062X) =  -232.965196238     A.U. after    3 cycles
 SCF Done:  E(UM062X) =  -232.965196238     A.U. after    3 cycles
 SCF Done:  E(UM062X) =  -232.965196238     A.U. after    2 cycles
 Optimization completed.
    -- Stationary point found.
 Normal termination of Gaussian 16 at Thu Mar  7 03:01:17 2019.

 ----------------------------------------------------------------------
 #P Geom=AllCheck Guess=TCheck SCRF=Check Test GenChk UM062X/6-311+G(2d
 f,2p) Freq
 ----------------------------------------------------------------------

 Structure from the checkpoint file:  "/scratch/underkoffler.c/gaussian_scratch/Gau-28668.chk"
 ------------------------------
 Gaussian input prepared by ASE
 ------------------------------
 Charge =  0 Multiplicity = 2

                         Standard orientation:
 ---------------------------------------------------------------------
 Center     Atomic      Atomic             Coordinates (Angstroms)
 Number     Number       Type             X           Y           Z
 ---------------------------------------------------------------------
      1          8           0       -0.766003   -0.550060   -0.335244
      2          6           0        0.372487    0.002651    0.323328
      3          6           0        1.543118   -0.901683    0.000948
      4          6           0        0.600021    1.434251   -0.132234
      5          6           0       -1.962284   -0.088079    0.076474
      6          1           0        0.175807   -0.014773    1.401979
      7          1           0        1.344489   -1.919869    0.330195
      8          1           0        2.445314   -0.541691    0.493749
      9          1           0        1.715553   -0.912297   -1.075348
     10          1           0        0.784175    1.452992   -1.206800
     11          1           0        1.463313    1.860776    0.377838
     12          1           0       -0.271319    2.052240    0.079650
     13          1           0       -2.044831    0.277504    1.093402
     14          1           0       -2.804526   -0.537244   -0.423804
 ---------------------------------------------------------------------

 SCF Done:  E(UM062X) =  -232.965196238     A.U. after    1 cycles

 The electronic state is 2-A.
 Alpha  occ. eigenvalues --  -19.65166 -10.59644 -10.57371 -10.52745 -10.52698
 Alpha  occ. eigenvalues --   -1.19238  -0.89547  -0.79167  -0.75655  -0.67270
 Alpha  occ. eigenvalues --   -0.57916  -0.55713  -0.54382  -0.49707  -0.46289
 Alpha  occ. eigenvalues --   -0.45780  -0.44411  -0.42241  -0.40123  -0.38859
 Alpha  occ. eigenvalues --   -0.22851
 Alpha virt. eigenvalues --    0.01819   0.03467   0.03655   0.03926   0.05867
 Alpha virt. eigenvalues --    0.06590   0.07257   0.07655   0.08314   0.10053
 Alpha virt. eigenvalues --    0.10606   0.11776   0.12702   0.13169   0.13832

  Beta  occ. eigenvalues --  -19.64727 -10.59652 -10.56674 -10.52744 -10.52687
  Beta  occ. eigenvalues --   -1.17842  -0.89230  -0.78985  -0.73519  -0.66409
  Beta  occ. eigenvalues --   -0.56861  -0.55068  -0.52729  -0.48827  -0.46117
  Beta  occ. eigenvalues --   -0.45525  -0.43222  -0.41854  -0.39231  -0.37221
  Beta virt. eigenvalues --   -0.00642   0.01611   0.03203   0.03781   0.04086
  Beta virt. eigenvalues --    0.05973   0.06642   0.07269   0.07668   0.08497
  Beta virt. eigenvalues --    0.09544   0.10600   0.11992   0.12726   0.13098

 Mulliken charges and spin densities:
               1          2
     1  O   -0.046413   0.062479
     2  C   -0.271591   0.040130
     3  C   -0.420366  -0.000322
     4  C   -0.326925   0.002319
     5  C   -0.313613   0.986762
     6  H    0.163535  -0.001208
     7  H    0.150343  -0.000625
     8  H    0.141390  -0.000344
     9  H    0.161341  -0.000427
    10  H    0.161754  -0.000441
    11  H    0.142496  -0.001758
    12  H    0.145301  -0.009991
    13  H    0.148328  -0.041281
    14  H    0.164420  -0.035292
 Sum of Mulliken charges =  -0.00000   1.00000

 Dipole moment (field-independent basis, Debye):
    X=              0.9014    Y=              0.4774    Z=              0.9914  Tot=              1.4224
 Quadrupole moment (field-independent basis, Debye-Ang):
   XX=            -31.7166   YY=            -34.0872   ZZ=            -32.8291
   XY=              0.2388   XZ=             -0.5335   YZ=              0.1625

  Exact polarizability:  63.807  -0.497  53.593  -0.353  -0.712  48.608
 Approx polarizability:  64.422  -0.014  58.758  -0.071   0.672  59.548

                      1                      2                      3
                      A                      A                      A
 Frequencies --    113.8397               211.1395               250.6940
 Red. masses --      2.6626                 1.0367                 1.0489
 Frc consts  --      0.0203                 0.0272                 0.0388
 IR Inten    --      2.4986                 0.1573                 0.8365

                      4                      5                      6
                      A                      A                      A
 Frequencies --    269.6432               317.5913               360.4090
 Red. masses --      1.3010                 2.0536                 2.1980
 Frc consts  --      0.0557                 0.1220                 0.1682
 IR Inten    --      2.8602                 2.1264                 0.5366

                      7                      8                      9
                      A                      A                      A
 Frequencies --    468.6136               518.8955               602.1297
 Red. masses --      2.6416                 2.6694                 1.3093
 Frc consts  --      0.3418                 0.4235                 0.2797
 IR Inten    --      7.5215                 2.6314                42.9597

                     10                     11                     12
                      A                      A                      A
 Frequencies --    826.9847               935.4229               945.4431
 Red. masses --      2.4455                 1.1680                 1.7552
 Frc consts  --      0.9854                 0.6022                 0.9244
 IR Inten    --      5.2300                 0.6314                 6.9713

                     13                     14                     15
                      A                      A                      A
 Frequencies --    959.2544              1139.0659              1163.8451
 Red. masses --      1.6909                 1.5003                 1.9638
 Frc consts  --      0.9167                 1.1469                 1.5672
 IR Inten    --      5.5097                10.0646                 9.1364

                     16                     17                     18
                      A                      A                      A
 Frequencies --   1202.6016              1236.1416              1303.4088
 Red. masses --      1.9366                 1.7578                 5.4736
 Frc consts  --      1.6502                 1.5826                 5.4788
 IR Inten    --     10.0805                23.2617               239.2884

                     19                     20                     21
                      A                      A                      A
 Frequencies --   1372.2488              1386.2930              1407.8882
 Red. masses --      1.3032                 1.2066                 1.4249
 Frc consts  --      1.4459                 1.3662                 1.6641
 IR Inten    --      2.3982                13.4743                24.2074

                     22                     23                     24
                      A                      A                      A
 Frequencies --   1423.1125              1484.1188              1489.1162
 Red. masses --      1.3222                 1.0601                 1.1423
 Frc consts  --      1.5777                 1.3757                 1.4925
 IR Inten    --     22.8059                 1.4591                 3.5112

                     25                     26                     27
                      A                      A                      A
 Frequencies --   1491.9700              1497.3494              1515.2464
 Red. masses --      1.0966                 1.0541                 1.0623
 Frc consts  --      1.4383                 1.3925                 1.4370
 IR Inten    --      2.4573                 5.8312                 8.3478

                     28                     29                     30
                      A                      A                      A
 Frequencies --   3019.5187              3065.4751              3071.9855
 Red. masses --      1.0840                 1.0347                 1.0353
 Frc consts  --      5.8231                 5.7288                 5.7567
 IR Inten    --     27.5009                10.1281                11.8079

                     31                     32                     33
                      A                      A                      A
 Frequencies --   3133.3798              3139.6080              3146.1867
 Red. masses --      1.0497                 1.1024                 1.1023
 Frc consts  --      6.0724                 6.4023                 6.4284
 IR Inten    --     20.0266                 4.3952                17.1376

                     34                     35                     36
                      A                      A                      A
 Frequencies --   3147.6594              3154.5835              3282.9553
 Red. masses --      1.1021                 1.1031                 1.1198
 Frc consts  --      6.4334                 6.4674                 7.1111
 IR Inten    --     26.5500                16.1172                 8.7559

 - Thermochemistry -
 -------------------
 Temperature   298.150 Kelvin.  Pressure   1.00000 Atm.
 Atom     1 has atomic number  8 and mass  15.99491

 Molecular mass:    73.06534 amu.
 Principal axes and moments of inertia in atomic units:
                           1         2         3
     Eigenvalues --   229.25473 448.97930 608.21391
           X            0.99974  -0.01886  -0.01273
           Y            0.01878   0.99981  -0.00570
           Z            0.01283   0.00546   0.99990
 This molecule is an asymmetric top.
 Rotational symmetry number  1.
 Rotational temperatures (Kelvin)      0.37781     0.19291     0.14241
 Rotational constants (GHZ):           7.87221     4.01965     2.96728
 Zero-point vibrational energy     323313.6 (Joules/Mol)
                                   77.27381 (Kcal/Mol)
 Warning -- explicit consideration of   9 degrees of freedom as
           vibrations may cause significant error
 Vibrational temperatures:    163.79   303.78   360.69   387.96   456.94
          (Kelvin)            518.55   674.23   746.57   866.33  1189.85
                             1345.86  1360.28  1380.15  1638.86  1674.51
                             1730.28  1778.53  1875.31  1974.36  1994.57
                             2025.64  2047.54  2135.32  2142.51  2146.61
                             2154.35  2180.10  4344.41  4410.53  4419.90
                             4508.23  4517.20  4526.66  4528.78  4538.74
                             4723.44

 Zero-point correction=                           0.123144 (Hartree/Particle)
 Thermal correction to Energy=                    0.129884
 Thermal correction to Enthalpy=                  0.130828
 Thermal correction to Gibbs Free Energy=         0.093067
 Sum of electronic and zero-point Energies=           -232.842053
 Sum of electronic and thermal Energies=              -232.835312
 Sum of electronic and thermal Enthalpies=            -232.834368
 Sum of electronic and thermal Free Energies=         -232.872129

                     E (Thermal)             CV                S
                      KCal/Mol        Cal/Mol-Kelvin    Cal/Mol-Kelvin
 Total                   81.504             23.708             79.475
 Electronic               0.000              0.000              1.377
 Translational            0.889              2.981             38.783
 Rotational               0.889              2.981             25.640
 Vibrational             79.726             17.747             13.675
 Vibration     1          0.607              1.938              3.202
 Vibration     2          0.643              1.824              2.034
 Vibration     3          0.663              1.762              1.726
 Vibration     4          0.674              1.729              1.598
 Vibration     5          0.704              1.640              1.322
 Vibration     6          0.735              1.554              1.120
 Vibration     7          0.826              1.320              0.741
 Vibration     8          0.874              1.208              0.613
 Vibration     9          0.960              1.027              0.446

                           ! Non-Optimized Parameters !
 Normal termination of Gaussian 16 at Thu Mar  7 04:21:51 2019.
