 Gaussian 16, Revision A.03,
 Gaussian 16:  EM64L-G16RevA.03 25-Dec-2016

 ----------------------------------------------------------------------
 #p m062x/6-311+g(2df,2p) opt=(calcfc,verytight,gdiis,maxcycles=900) fr
 eq iop(7/33=1,2/16=3)
 ----------------------------------------------------------------------

 ------------------------------
 Gaussian input prepared by ASE
 ------------------------------
 Symbolic Z-matrix:
 Charge =  0 Multiplicity = 2

 SCF Done:  E(UM062X) =  -232.956298120     A.U. after   14 cycles
 SCF Done:  E(UM062X) =  -232.966015714     A.U. after   12 cycles
 SCF Done:  E(UM062X) =  -232.967381192     A.U. after   12 cycles
 SCF Done:  E(UM062X) =  -232.967713470     A.U. after   12 cycles
 SCF Done:  E(UM062X) =  -232.967853100     A.U. after   11 cycles
 SCF Done:  E(UM062X) =  -232.968000609     A.U. after   10 cycles
 SCF Done:  E(UM062X) =  -232.968092634     A.U. after   11 cycles
 SCF Done:  E(UM062X) =  -232.968123186     A.U. after   10 cycles
 SCF Done:  E(UM062X) =  -232.968129269     A.U. after    9 cycles
 SCF Done:  E(UM062X) =  -232.968152034     A.U. after   10 cycles
 SCF Done:  E(UM062X) =  -232.969630810     A.U. after   11 cycles
 SCF Done:  E(UM062X) =  -232.969639847     A.U. after   11 cycles
 SCF Done:  E(UM062X) =  -232.969640330     A.U. after   10 cycles
 SCF Done:  E(UM062X) =  -232.969640333     A.U. after    7 cycles
 SCF Done:  E(UM062X) =  -232.969640333     A.U. after    5 cycles
 SCF Done:  E(UM062X) =  -232.969640333     A.U. after    5 cycles
 SCF Done:  E(UM062X) =  -232.969640333     A.U. after    3 cycles
 SCF Done:  E(UM062X) =  -232.969640333     A.U. after    2 cycles
 SCF Done:  E(UM062X) =  -232.969640333     A.U. after    3 cycles
 Optimization completed.
    -- Stationary point found.
 Normal termination of Gaussian 16 at Sat Mar  9 01:36:17 2019.

 ----------------------------------------------------------------------
 #P Geom=AllCheck Guess=TCheck SCRF=Check Test GenChk UM062X/6-311+G(2d
 f,2p) Freq
 ----------------------------------------------------------------------

 Structure from the checkpoint file:  "/scratch/underkoffler.c/gaussian_scratch/Gau-17948.chk"
 ------------------------------
 Gaussian input prepared by ASE
 ------------------------------
 Charge =  0 Multiplicity = 2

                         Standard orientation:
 ---------------------------------------------------------------------
 Center     Atomic      Atomic             Coordinates (Angstroms)
 Number     Number       Type             X           Y           Z
 ---------------------------------------------------------------------
      1          8           0       -1.812857   -0.879076    0.195072
      2          6           0       -0.050534    0.803139    0.252202
      3          6           0       -1.471986    0.443560   -0.163848
      4          6           0        2.294159   -0.304936    0.147954
      5          6           0        0.967782   -0.020012   -0.459419
      6          1           0        0.108193    1.872860    0.051871
      7          1           0        0.049361    0.671037    1.332890
      8          1           0       -1.585848    0.592636   -1.244342
      9          1           0       -2.191424    1.088906    0.337771
     10          1           0        2.836292   -1.075072   -0.398437
     11          1           0        2.931253    0.589348    0.163242
     12          1           0        2.188894   -0.626533    1.186271
     13          1           0        0.847227   -0.148421   -1.529562
     14          1           0       -1.117615   -1.462664   -0.121614
 ---------------------------------------------------------------------

 SCF Done:  E(UM062X) =  -232.969640333     A.U. after    1 cycles

 The electronic state is 2-A.
 Alpha  occ. eigenvalues --  -19.61543 -10.57962 -10.55036 -10.53771 -10.53434
 Alpha  occ. eigenvalues --   -1.14192  -0.90307  -0.82563  -0.73139  -0.65886
 Alpha  occ. eigenvalues --   -0.58329  -0.53850  -0.52486  -0.50507  -0.47842
 Alpha  occ. eigenvalues --   -0.46569  -0.42997  -0.42075  -0.39176  -0.34776
 Alpha  occ. eigenvalues --   -0.25272
 Alpha virt. eigenvalues --    0.01622   0.02772   0.03151   0.04213   0.05522
 Alpha virt. eigenvalues --    0.06250   0.06636   0.07416   0.08460   0.09411
 Alpha virt. eigenvalues --    0.10167   0.11866   0.13282   0.13748   0.16356

  Beta  occ. eigenvalues --  -19.61523 -10.57932 -10.54362 -10.53831 -10.53494
  Beta  occ. eigenvalues --   -1.14115  -0.88638  -0.82028  -0.72531  -0.63872
  Beta  occ. eigenvalues --   -0.58051  -0.52742  -0.51829  -0.49476  -0.46826
  Beta  occ. eigenvalues --   -0.46074  -0.42352  -0.41602  -0.38880  -0.34650
  Beta virt. eigenvalues --   -0.02306   0.01486   0.02611   0.02992   0.04101
  Beta virt. eigenvalues --    0.05480   0.06273   0.06624   0.07368   0.08204
  Beta virt. eigenvalues --    0.09306   0.10077   0.11553   0.13039   0.13571

 Mulliken charges and spin densities:
               1          2
     1  O   -0.345538   0.008978
     2  C   -0.335281  -0.058036
     3  C   -0.183396   0.018822
     4  C   -0.475803  -0.052975
     5  C   -0.128477   1.020885
     6  H    0.152118   0.045623
     7  H    0.179689   0.005026
     8  H    0.139984  -0.004640
     9  H    0.139920  -0.001476
    10  H    0.134028   0.008224
    11  H    0.138048   0.051888
    12  H    0.142176   0.019996
    13  H    0.190089  -0.060544
    14  H    0.252443  -0.001771
 Sum of Mulliken charges =  -0.00000   1.00000

 Dipole moment (field-independent basis, Debye):
    X=              1.8327    Y=              0.8645    Z=             -0.6798  Tot=              2.1374
 Quadrupole moment (field-independent basis, Debye-Ang):
   XX=            -36.7280   YY=            -31.9913   ZZ=            -32.7151
   XY=             -3.1757   XZ=              1.1745   YZ=              1.1009

  Exact polarizability:  62.595  -2.018  52.174   1.015   0.801  49.007
 Approx polarizability:  62.464  -1.087  61.495   0.121   0.560  59.309

                      1                      2                      3
                      A                      A                      A
 Frequencies --     62.7625               126.4559               183.5761
 Red. masses --      2.5950                 1.1609                 2.0804
 Frc consts  --      0.0060                 0.0109                 0.0413
 IR Inten    --      0.5945                 0.5297                 1.9592

                      4                      5                      6
                      A                      A                      A
 Frequencies --    257.5248               354.7447               378.7643
 Red. masses --      1.9047                 1.6373                 1.4348
 Frc consts  --      0.0744                 0.1214                 0.1213
 IR Inten    --      4.6681                32.2440                86.8262

                      7                      8                      9
                      A                      A                      A
 Frequencies --    480.0076               510.4455               844.0532
 Red. masses --      1.3072                 2.2617                 2.2816
 Frc consts  --      0.1774                 0.3472                 0.9577
 IR Inten    --     23.4446                 4.5361                 5.7084

                     10                     11                     12
                      A                      A                      A
 Frequencies --    853.8635               968.4921               977.7805
 Red. masses --      1.5807                 1.4935                 1.2859
 Frc consts  --      0.6790                 0.8254                 0.7243
 IR Inten    --      2.2048                12.6620                 1.7030

                     13                     14                     15
                      A                      A                      A
 Frequencies --   1027.8913              1117.2488              1136.0172
 Red. masses --      1.9920                 2.8477                 1.8658
 Frc consts  --      1.2400                 2.0943                 1.4187
 IR Inten    --      2.8879               100.1067                 3.6645

                     16                     17                     18
                      A                      A                      A
 Frequencies --   1157.8726              1213.1871              1237.0956
 Red. masses --      1.8433                 1.3379                 1.3857
 Frc consts  --      1.4561                 1.1602                 1.2495
 IR Inten    --      1.1889                21.9289                 3.2546

                     19                     20                     21
                      A                      A                      A
 Frequencies --   1322.4686              1375.5269              1405.8323
 Red. masses --      1.3472                 1.1941                 1.2647
 Frc consts  --      1.3882                 1.3312                 1.4726
 IR Inten    --      4.1503                 8.6526                 0.6162

                     22                     23                     24
                      A                      A                      A
 Frequencies --   1427.5411              1430.0190              1466.9377
 Red. masses --      1.4857                 1.4465                 1.1237
 Frc consts  --      1.7838                 1.7428                 1.4247
 IR Inten    --      9.0672                49.7057                 6.9554

                     25                     26                     27
                      A                      A                      A
 Frequencies --   1483.3026              1491.0394              1522.0326
 Red. masses --      1.0676                 1.0449                 1.0915
 Frc consts  --      1.3840                 1.3687                 1.4897
 IR Inten    --      7.8834                 6.2543                 2.2432

                     28                     29                     30
                      A                      A                      A
 Frequencies --   2982.1642              2998.7275              3017.7454
 Red. masses --      1.0696                 1.0556                 1.0712
 Frc consts  --      5.6047                 5.5928                 5.7478
 IR Inten    --     21.3345                23.8730                49.5720

                     31                     32                     33
                      A                      A                      A
 Frequencies --   3073.6851              3075.9973              3119.4581
 Red. masses --      1.0882                 1.0781                 1.0935
 Frc consts  --      6.0571                 6.0103                 6.2696
 IR Inten    --     15.2996                18.6237                28.4339

                     34                     35                     36
                      A                      A                      A
 Frequencies --   3131.2879              3163.9660              3862.6802
 Red. masses --      1.0980                 1.0881                 1.0658
 Frc consts  --      6.3432                 6.4178                 9.3695
 IR Inten    --     11.2569                21.3860                34.5614

 - Thermochemistry -
 -------------------
 Temperature   298.150 Kelvin.  Pressure   1.00000 Atm.
 Atom     1 has atomic number  8 and mass  15.99491

 Molecular mass:    73.06534 amu.
 Principal axes and moments of inertia in atomic units:
                           1         2         3
     Eigenvalues --   160.60788 699.08691 774.81425
           X            0.99955  -0.02800   0.01112
           Y            0.02760   0.99900   0.03521
           Z           -0.01210  -0.03489   0.99932
 This molecule is an asymmetric top.
 Rotational symmetry number  1.
 Rotational temperatures (Kelvin)      0.53929     0.12390     0.11179
 Rotational constants (GHZ):          11.23694     2.58157     2.32926
 Zero-point vibrational energy     324416.5 (Joules/Mol)
                                   77.53739 (Kcal/Mol)
 Warning -- explicit consideration of   8 degrees of freedom as
           vibrations may cause significant error
 Vibrational temperatures:     90.30   181.94   264.13   370.52   510.40
          (Kelvin)            544.96   690.62   734.42  1214.40  1228.52
                             1393.44  1406.81  1478.91  1607.47  1634.48
                             1665.92  1745.51  1779.90  1902.74  1979.08
                             2022.68  2053.91  2057.48  2110.60  2134.14
                             2145.27  2189.87  4290.67  4314.50  4341.86
                             4422.35  4425.67  4488.20  4505.22  4552.24
                             5557.54

 Zero-point correction=                           0.123564 (Hartree/Particle)
 Thermal correction to Energy=                    0.130495
 Thermal correction to Enthalpy=                  0.131440
 Thermal correction to Gibbs Free Energy=         0.092474
 Sum of electronic and zero-point Energies=           -232.846077
 Sum of electronic and thermal Energies=              -232.839145
 Sum of electronic and thermal Enthalpies=            -232.838201
 Sum of electronic and thermal Free Energies=         -232.877166

                     E (Thermal)             CV                S
                      KCal/Mol        Cal/Mol-Kelvin    Cal/Mol-Kelvin
 Total                   81.887             23.372             82.010
 Electronic               0.000              0.000              1.377
 Translational            0.889              2.981             38.783
 Rotational               0.889              2.981             25.967
 Vibrational             80.110             17.411             15.883
 Vibration     1          0.597              1.972              4.368
 Vibration     2          0.611              1.927              2.999
 Vibration     3          0.631              1.862              2.292
 Vibration     4          0.667              1.750              1.678
 Vibration     5          0.731              1.566              1.145
 Vibration     6          0.749              1.515              1.044
 Vibration     7          0.836              1.294              0.710
 Vibration     8          0.866              1.227              0.633

 Optimization completed.
    -- Stationary point found.
 Normal termination of Gaussian 16 at Sat Mar  9 01:41:34 2019.
