 Gaussian 16, Revision A.03,
 Gaussian 16:  EM64L-G16RevA.03 25-Dec-2016

 ----------------------------------------------
 #p m062x/6-311+g(2df,2p) Opt=(CalcFC,ModRedun)
 ----------------------------------------------

 ----------------------------------------
 Gaussian Input Prepared from Scan Object
 ----------------------------------------
 Symbolic Z-matrix:
 Charge =  0 Multiplicity = 1

 SCF Done:  E(RM062X) =  -359.593946866     A.U. after   13 cycles

  Exact polarizability:   0.000   0.000   0.000   0.000   0.000   0.000
 Approx polarizability:  51.989  -2.907  59.642   1.190  -1.132  44.731

 Optimization completed.
    -- Stationary point found.
 SCF Done:  E(RM062X) =  -359.593227706     A.U. after   11 cycles
 SCF Done:  E(RM062X) =  -359.593743143     A.U. after   11 cycles
 SCF Done:  E(RM062X) =  -359.593747660     A.U. after   10 cycles
 Optimization completed.
 SCF Done:  E(RM062X) =  -359.592622785     A.U. after   11 cycles
 SCF Done:  E(RM062X) =  -359.593106109     A.U. after   11 cycles
 SCF Done:  E(RM062X) =  -359.593113077     A.U. after   10 cycles
 SCF Done:  E(RM062X) =  -359.593113276     A.U. after    8 cycles
 SCF Done:  E(RM062X) =  -359.591515001     A.U. after   11 cycles
 SCF Done:  E(RM062X) =  -359.591998487     A.U. after   11 cycles
 SCF Done:  E(RM062X) =  -359.591628915     A.U. after   11 cycles
 SCF Done:  E(RM062X) =  -359.591629125     A.U. after    8 cycles
 SCF Done:  E(RM062X) =  -359.591230226     A.U. after   11 cycles
 SCF Done:  E(RM062X) =  -359.591799811     A.U. after   11 cycles
 SCF Done:  E(RM062X) =  -359.591808331     A.U. after   11 cycles
 SCF Done:  E(RM062X) =  -359.591808492     A.U. after    8 cycles
    -- Stationary point found.
 SCF Done:  E(RM062X) =  -359.591085467     A.U. after   11 cycles
 SCF Done:  E(RM062X) =  -359.591629746     A.U. after   11 cycles
 SCF Done:  E(RM062X) =  -359.591640255     A.U. after   11 cycles
 SCF Done:  E(RM062X) =  -359.591640499     A.U. after    8 cycles
 Optimization completed.
    -- Stationary point found.

                         Standard orientation:
 ---------------------------------------------------------------------
 Center     Atomic      Atomic             Coordinates (Angstroms)
 Number     Number       Type             X           Y           Z
 ---------------------------------------------------------------------
      1          8           0       -1.902022   -0.463133   -0.538690
      2          8           0        0.705637   -1.211278    0.314993
      3          8           0        2.109418    0.416336   -0.289501
      4          7           0       -1.400943    0.358120    0.503091
      5          6           0       -0.185545    0.994001    0.038604
      6          6           0        1.004362    0.061004    0.002247
      7          1           0       -0.278301    1.416958   -0.967212
      8          1           0        0.069432    1.802936    0.724164
      9          1           0       -2.114929    1.069005    0.609427
     10          1           0       -1.613175   -1.343610   -0.281875
     11          1           0        1.526398   -1.717565    0.254344
 ---------------------------------------------------------------------

 The electronic state is 1-A.
 Alpha  occ. eigenvalues --  -19.68556 -19.65674 -19.62611 -14.80209 -10.68793
 Alpha  occ. eigenvalues --  -10.59059  -1.25477  -1.20159  -1.15684  -0.96680
 Alpha  occ. eigenvalues --   -0.82153  -0.71156  -0.61411  -0.60521  -0.58418
 Alpha  occ. eigenvalues --   -0.57030  -0.55784  -0.50770  -0.49068  -0.47686
 Alpha  occ. eigenvalues --   -0.41670  -0.39441  -0.36927  -0.32517
 Alpha virt. eigenvalues --    0.00608   0.01888   0.03303   0.04425   0.05134
 Alpha virt. eigenvalues --    0.06573   0.07313   0.07565   0.08923   0.12557
 Alpha virt. eigenvalues --    0.12839   0.14310   0.16534   0.18399   0.19412

 Mulliken charges:
               1
     1  O   -0.268133
     2  O   -0.349730
     3  O   -0.423397
     4  N   -0.266650
     5  C   -0.122103
     6  C    0.281013
     7  H    0.177822
     8  H    0.154352
     9  H    0.226829
    10  H    0.289199
    11  H    0.300798
 Sum of Mulliken charges =  -0.00000

 Dipole moment (field-independent basis, Debye):
    X=             -0.7597    Y=             -0.3308    Z=              0.7133  Tot=              1.0933
 Quadrupole moment (field-independent basis, Debye-Ang):
   XX=            -41.0431   YY=            -27.7107   ZZ=            -37.1999
   XY=             -6.1468   XZ=              0.4349   YZ=              1.3958

 Normal termination of Gaussian 16 at Tue Mar 12 03:09:06 2019.
