 Gaussian 16, Revision A.03,
 Gaussian 16:  EM64L-G16RevA.03 25-Dec-2016

 ----------------------------------------------------------------------
 #p m062x/6-311+g(2df,2p) opt=(calcfc,verytight,gdiis,maxcycles=900) fr
 eq iop(7/33=1,2/16=3)
 ----------------------------------------------------------------------

 ------------------------------
 Gaussian input prepared by ASE
 ------------------------------
 Symbolic Z-matrix:
 Charge =  0 Multiplicity = 1

 SCF Done:  E(RM062X) =  -359.572644982     A.U. after   13 cycles
 SCF Done:  E(RM062X) =  -359.589641796     A.U. after   12 cycles
 SCF Done:  E(RM062X) =  -359.591625363     A.U. after   13 cycles
 SCF Done:  E(RM062X) =  -359.591786137     A.U. after   11 cycles
 SCF Done:  E(RM062X) =  -359.591804744     A.U. after   11 cycles
 SCF Done:  E(RM062X) =  -359.591808072     A.U. after   10 cycles
 SCF Done:  E(RM062X) =  -359.591808533     A.U. after    9 cycles
 SCF Done:  E(RM062X) =  -359.591808575     A.U. after    7 cycles
 SCF Done:  E(RM062X) =  -359.591808580     A.U. after    5 cycles
 SCF Done:  E(RM062X) =  -359.591808578     A.U. after    5 cycles
 SCF Done:  E(RM062X) =  -359.591808579     A.U. after    3 cycles
 SCF Done:  E(RM062X) =  -359.591808578     A.U. after    3 cycles
 SCF Done:  E(RM062X) =  -359.591808579     A.U. after    3 cycles
 SCF Done:  E(RM062X) =  -359.591808578     A.U. after    2 cycles
 Optimization completed.
    -- Stationary point found.
 Normal termination of Gaussian 16 at Tue Apr  9 00:11:00 2019.

 ----------------------------------------------------------------------
 #P Geom=AllCheck Guess=TCheck SCRF=Check Test GenChk RM062X/6-311+G(2d
 f,2p) Freq
 ----------------------------------------------------------------------

 Structure from the checkpoint file:  "/scratch/underkoffler.c/gaussian_scratch/Gau-14489.chk"
 ------------------------------
 Gaussian input prepared by ASE
 ------------------------------
 Charge =  0 Multiplicity = 1

                         Standard orientation:
 ---------------------------------------------------------------------
 Center     Atomic      Atomic             Coordinates (Angstroms)
 Number     Number       Type             X           Y           Z
 ---------------------------------------------------------------------
      1          8           0        1.878907    0.445387    0.588838
      2          8           0       -0.729751    1.204930   -0.351952
      3          8           0       -2.087653   -0.425611    0.342470
      4          7           0        1.407087   -0.325324   -0.502566
      5          6           0        0.191296   -0.990698   -0.090307
      6          6           0       -1.000728   -0.062989   -0.004931
      7          1           0        0.273495   -1.479148    0.885793
      8          1           0       -0.054875   -1.753590   -0.830418
      9          1           0        2.131498   -1.018651   -0.647816
     10          1           0        1.717344    1.349961    0.307063
     11          1           0       -1.552495    1.703169   -0.260079
 ---------------------------------------------------------------------

 SCF Done:  E(RM062X) =  -359.591808578     A.U. after    1 cycles

 The electronic state is 1-A.
 Alpha  occ. eigenvalues --  -19.68297 -19.65794 -19.62401 -14.80170 -10.68600
 Alpha  occ. eigenvalues --  -10.58989  -1.25267  -1.20246  -1.15462  -0.96714
 Alpha  occ. eigenvalues --   -0.81972  -0.70958  -0.61267  -0.60767  -0.58294
 Alpha  occ. eigenvalues --   -0.56808  -0.55728  -0.50903  -0.48767  -0.47602
 Alpha  occ. eigenvalues --   -0.41334  -0.39129  -0.36873  -0.32707
 Alpha virt. eigenvalues --    0.00672   0.01924   0.03454   0.04383   0.05247
 Alpha virt. eigenvalues --    0.06462   0.07336   0.07634   0.09012   0.12560
 Alpha virt. eigenvalues --    0.12713   0.14099   0.16686   0.18536   0.19431

 Mulliken charges:
               1
     1  O   -0.264092
     2  O   -0.337370
     3  O   -0.425412
     4  N   -0.275088
     5  C   -0.112530
     6  C    0.267393
     7  H    0.178744
     8  H    0.153624
     9  H    0.229413
    10  H    0.289249
    11  H    0.296070
 Sum of Mulliken charges =  -0.00000

 Dipole moment (field-independent basis, Debye):
    X=              0.9948    Y=              0.4040    Z=             -0.9493  Tot=              1.4332
 Quadrupole moment (field-independent basis, Debye-Ang):
   XX=            -40.0245   YY=            -27.8615   ZZ=            -37.3006
   XY=             -5.6665   XZ=              0.4436   YZ=              1.7532

  Exact polarizability:  50.816   1.550  47.286  -2.055  -0.047  36.635
 Approx polarizability:  55.216   3.520  55.072  -2.757  -0.276  45.324

                      1                      2                      3
                      A                      A                      A
 Frequencies --     45.0128               150.8377               286.2588
 Red. masses --      5.7566                 4.5945                 2.5435
 Frc consts  --      0.0069                 0.0616                 0.1228
 IR Inten    --      4.1216                 2.8509                 6.1219

                      4                      5                      6
                      A                      A                      A
 Frequencies --    370.3862               391.5518               521.5387
 Red. masses --      1.3352                 3.3009                 1.7609
 Frc consts  --      0.1079                 0.2982                 0.2822
 IR Inten    --    135.5093                 2.6822                28.8718

                      7                      8                      9
                      A                      A                      A
 Frequencies --    556.9385               614.9484               688.4909
 Red. masses --      3.5236                 2.9211                 1.8044
 Frc consts  --      0.6440                 0.6508                 0.5039
 IR Inten    --     18.8702                38.7352               105.8494

                     10                     11                     12
                      A                      A                      A
 Frequencies --    840.9777               912.1553              1009.2099
 Red. masses --      2.7191                 3.5888                 1.6807
 Frc consts  --      1.1331                 1.7593                 1.0086
 IR Inten    --     14.7296                58.6434                39.6130

                     13                     14                     15
                      A                      A                      A
 Frequencies --   1071.2699              1138.9564              1214.2608
 Red. masses --      2.2532                 3.5357                 1.9335
 Frc consts  --      1.5235                 2.7023                 1.6796
 IR Inten    --     30.7273                32.3450               221.6140

                     16                     17                     18
                      A                      A                      A
 Frequencies --   1281.9972              1364.9667              1372.5242
 Red. masses --      1.1606                 1.4172                 1.8520
 Frc consts  --      1.1238                 1.5558                 2.0556
 IR Inten    --      1.7669                60.0859                59.0857

                     19                     20                     21
                      A                      A                      A
 Frequencies --   1431.8400              1457.9531              1522.8538
 Red. masses --      1.5636                 1.2067                 1.1340
 Frc consts  --      1.8887                 1.5112                 1.5494
 IR Inten    --     24.4024                 0.4871                 7.1360

                     22                     23                     24
                      A                      A                      A
 Frequencies --   1875.1385              3049.6884              3118.0070
 Red. masses --     10.3992                 1.0655                 1.0959
 Frc consts  --     21.5436                 5.8388                 6.2775
 IR Inten    --    363.7798                14.4778                 1.7794

                     25                     26                     27
                      A                      A                      A
 Frequencies --   3551.2101              3822.8479              3877.9334
 Red. masses --      1.0760                 1.0645                 1.0677
 Frc consts  --      7.9950                 9.1656                 9.4600
 IR Inten    --      7.3727                96.3940                62.5993

 - Thermochemistry -
 -------------------
 Temperature   298.150 Kelvin.  Pressure   1.00000 Atm.
 Atom     1 has atomic number  8 and mass  15.99491

 Molecular mass:    91.02694 amu.
 Principal axes and moments of inertia in atomic units:
                           1         2         3
     Eigenvalues --   245.47961 714.27870 851.97674
           X            0.99977  -0.02138  -0.00133
           Y            0.02140   0.99957   0.02020
           Z            0.00090  -0.02023   0.99980
 This molecule is an asymmetric top.
 Rotational symmetry number  1.
 Rotational temperatures (Kelvin)      0.35284     0.12126     0.10166
 Rotational constants (GHZ):           7.35190     2.52666     2.11830
 Zero-point vibrational energy     224537.6 (Joules/Mol)
                                   53.66577 (Kcal/Mol)
 Warning -- explicit consideration of   8 degrees of freedom as
           vibrations may cause significant error
 Vibrational temperatures:     64.76   217.02   411.86   532.90   563.36
          (Kelvin)            750.38   801.31   884.77   990.58  1209.98
                             1312.39  1452.03  1541.32  1638.70  1747.05
                             1844.51  1963.88  1974.76  2060.10  2097.67
                             2191.05  2697.91  4387.82  4486.12  5109.40
                             5500.23  5579.48

 Zero-point correction=                           0.085522 (Hartree/Particle)
 Thermal correction to Energy=                    0.091866
 Thermal correction to Enthalpy=                  0.092810
 Thermal correction to Gibbs Free Energy=         0.054916
 Sum of electronic and zero-point Energies=           -359.506287
 Sum of electronic and thermal Energies=              -359.499943
 Sum of electronic and thermal Enthalpies=            -359.498999
 Sum of electronic and thermal Free Energies=         -359.536892

                     E (Thermal)             CV                S
                      KCal/Mol        Cal/Mol-Kelvin    Cal/Mol-Kelvin
 Total                   57.647             21.590             79.754
 Electronic               0.000              0.000              0.000
 Translational            0.889              2.981             39.438
 Rotational               0.889              2.981             26.505
 Vibrational             55.869             15.629             13.811
 Vibration     1          0.595              1.979              5.025
 Vibration     2          0.618              1.902              2.662
 Vibration     3          0.684              1.699              1.496
 Vibration     4          0.742              1.533              1.078
 Vibration     5          0.759              1.488              0.994
 Vibration     6          0.877              1.202              0.606
 Vibration     7          0.912              1.125              0.530
 Vibration     8          0.974              1.000              0.425

                           ! Non-Optimized Parameters !
 Normal termination of Gaussian 16 at Tue Apr  9 00:13:35 2019.
