 Gaussian 16, Revision A.03,
 Gaussian 16:  EM64L-G16RevA.03 25-Dec-2016

 ----------------------------------------------
 #p m062x/6-311+g(2df,2p) Opt=(CalcFC,ModRedun)
 ----------------------------------------------

 ----------------------------------------
 Gaussian Input Prepared from Scan Object
 ----------------------------------------
 Symbolic Z-matrix:
 Charge =  0 Multiplicity = 1

 SCF Done:  E(RM062X) =  -359.593946866     A.U. after   13 cycles

  Exact polarizability:   0.000   0.000   0.000   0.000   0.000   0.000
 Approx polarizability:  51.989  -2.907  59.642   1.190  -1.132  44.731

 Optimization completed.
    -- Stationary point found.
 SCF Done:  E(RM062X) =  -359.587111476     A.U. after   12 cycles
 SCF Done:  E(RM062X) =  -359.592204753     A.U. after   11 cycles
 SCF Done:  E(RM062X) =  -359.592349162     A.U. after   11 cycles
 SCF Done:  E(RM062X) =  -359.592361867     A.U. after   10 cycles
 SCF Done:  E(RM062X) =  -359.592362377     A.U. after    8 cycles
 Optimization completed.
 SCF Done:  E(RM062X) =  -359.583319861     A.U. after   12 cycles
 SCF Done:  E(RM062X) =  -359.588328226     A.U. after   11 cycles
 SCF Done:  E(RM062X) =  -359.588393639     A.U. after   11 cycles
 SCF Done:  E(RM062X) =  -359.588399136     A.U. after   10 cycles
 SCF Done:  E(RM062X) =  -359.591464179     A.U. after   13 cycles
 SCF Done:  E(RM062X) =  -359.591617169     A.U. after   11 cycles
 SCF Done:  E(RM062X) =  -359.591652910     A.U. after   11 cycles
 SCF Done:  E(RM062X) =  -359.591660484     A.U. after    9 cycles
 SCF Done:  E(RM062X) =  -359.591660823     A.U. after    8 cycles
    -- Stationary point found.
 SCF Done:  E(RM062X) =  -359.587967578     A.U. after   12 cycles
 SCF Done:  E(RM062X) =  -359.593696991     A.U. after   12 cycles
 SCF Done:  E(RM062X) =  -359.593935810     A.U. after   12 cycles
 SCF Done:  E(RM062X) =  -359.593946580     A.U. after   10 cycles
 SCF Done:  E(RM062X) =  -359.593946854     A.U. after    8 cycles
 Optimization completed.
    -- Stationary point found.

                         Standard orientation:
 ---------------------------------------------------------------------
 Center     Atomic      Atomic             Coordinates (Angstroms)
 Number     Number       Type             X           Y           Z
 ---------------------------------------------------------------------
      1          8           0       -1.927204    0.471106    0.523350
      2          8           0        2.087239   -0.408507    0.260311
      3          8           0        0.719321    1.257352   -0.331964
      4          7           0       -1.438933   -0.404009   -0.478082
      5          6           0       -0.184846   -0.957515   -0.020097
      6          6           0        0.888813    0.103213   -0.064276
      7          1           0       -0.224661   -1.342975    1.005336
      8          1           0        0.108278   -1.774908   -0.680506
      9          1           0       -2.135446   -1.137842   -0.521617
     10          1           0       -1.663737    1.337441    0.197344
     11          1           0        2.729446    0.312550    0.238679
 ---------------------------------------------------------------------

 The electronic state is 1-A.
 Alpha  occ. eigenvalues --  -19.68338 -19.65073 -19.62967 -14.79785 -10.68770
 Alpha  occ. eigenvalues --  -10.58984  -1.25422  -1.19771  -1.15723  -0.96308
 Alpha  occ. eigenvalues --   -0.82531  -0.70254  -0.61560  -0.60121  -0.59053
 Alpha  occ. eigenvalues --   -0.56372  -0.55285  -0.51358  -0.48537  -0.47760
 Alpha  occ. eigenvalues --   -0.41514  -0.39290  -0.36907  -0.32121
 Alpha virt. eigenvalues --    0.00650   0.01954   0.03349   0.04260   0.05223
 Alpha virt. eigenvalues --    0.06288   0.07535   0.07960   0.08845   0.12200
 Alpha virt. eigenvalues --    0.13161   0.14390   0.17608   0.17990   0.19330

 Mulliken charges:
               1
     1  O   -0.273958
     2  O   -0.312538
     3  O   -0.453756
     4  N   -0.242622
     5  C   -0.232089
     6  C    0.378406
     7  H    0.181692
     8  H    0.159570
     9  H    0.218470
    10  H    0.296174
    11  H    0.280651
 Sum of Mulliken charges =  -0.00000

 Dipole moment (field-independent basis, Debye):
    X=              1.1630    Y=             -1.7865    Z=              0.1204  Tot=              2.1351
 Quadrupole moment (field-independent basis, Debye-Ang):
   XX=            -31.9297   YY=            -33.3317   ZZ=            -37.3581
   XY=              2.9847   XZ=              1.4919   YZ=              1.9553

 Normal termination of Gaussian 16 at Fri Mar 29 18:09:48 2019.
