 Gaussian 16, Revision A.03,
 Gaussian 16:  EM64L-G16RevA.03 25-Dec-2016

 ----------------------------------------------
 #p m062x/6-311+g(2df,2p) Opt=(CalcFC,ModRedun)
 ----------------------------------------------

 ----------------------------------------
 Gaussian Input Prepared from Scan Object
 ----------------------------------------
 Symbolic Z-matrix:
 Charge =  0 Multiplicity = 1

 SCF Done:  E(RM062X) =  -359.593946866     A.U. after   13 cycles

  Exact polarizability:   0.000   0.000   0.000   0.000   0.000   0.000
 Approx polarizability:  51.989  -2.907  59.642   1.190  -1.132  44.731

 Optimization completed.
    -- Stationary point found.
 SCF Done:  E(RM062X) =  -359.593327451     A.U. after   12 cycles
 SCF Done:  E(RM062X) =  -359.593416240     A.U. after   10 cycles
 Optimization completed.
 SCF Done:  E(RM062X) =  -359.591774437     A.U. after   12 cycles
 SCF Done:  E(RM062X) =  -359.591885374     A.U. after   10 cycles
 SCF Done:  E(RM062X) =  -359.591885618     A.U. after    8 cycles
 SCF Done:  E(RM062X) =  -359.589380142     A.U. after   12 cycles
 SCF Done:  E(RM062X) =  -359.589528819     A.U. after   10 cycles
 SCF Done:  E(RM062X) =  -359.586406501     A.U. after   12 cycles
 SCF Done:  E(RM062X) =  -359.586609829     A.U. after   11 cycles
 SCF Done:  E(RM062X) =  -359.589310985     A.U. after   11 cycles
 SCF Done:  E(RM062X) =  -359.589485958     A.U. after   11 cycles
 SCF Done:  E(RM062X) =  -359.589486227     A.U. after    7 cycles
 SCF Done:  E(RM062X) =  -359.591742997     A.U. after   12 cycles
 SCF Done:  E(RM062X) =  -359.591872473     A.U. after   10 cycles
 SCF Done:  E(RM062X) =  -359.591872868     A.U. after    8 cycles
 SCF Done:  E(RM062X) =  -359.593315032     A.U. after   12 cycles
 SCF Done:  E(RM062X) =  -359.593413146     A.U. after   10 cycles
    -- Stationary point found.
 SCF Done:  E(RM062X) =  -359.593863241     A.U. after   12 cycles
 SCF Done:  E(RM062X) =  -359.593946727     A.U. after   10 cycles
 Optimization completed.
    -- Stationary point found.

                         Standard orientation:
 ---------------------------------------------------------------------
 Center     Atomic      Atomic             Coordinates (Angstroms)
 Number     Number       Type             X           Y           Z
 ---------------------------------------------------------------------
      1          8           0       -1.926699    0.471580    0.523322
      2          8           0        2.087293   -0.408163    0.260273
      3          8           0        0.719216    1.256993   -0.332118
      4          7           0       -1.439014   -0.403999   -0.477975
      5          6           0       -0.185060   -0.957853   -0.020017
      6          6           0        0.888604    0.102828   -0.064244
      7          1           0       -0.224928   -1.343147    1.005478
      8          1           0        0.107948   -1.775434   -0.680203
      9          1           0       -2.135841   -1.137562   -0.521143
     10          1           0       -1.662934    1.337700    0.196993
     11          1           0        2.729109    0.313311    0.238455
 ---------------------------------------------------------------------

 The electronic state is 1-A.
 Alpha  occ. eigenvalues --  -19.68336 -19.65073 -19.62963 -14.79787 -10.68769
 Alpha  occ. eigenvalues --  -10.58987  -1.25423  -1.19772  -1.15715  -0.96310
 Alpha  occ. eigenvalues --   -0.82531  -0.70254  -0.61563  -0.60122  -0.59052
 Alpha  occ. eigenvalues --   -0.56371  -0.55284  -0.51360  -0.48536  -0.47761
 Alpha  occ. eigenvalues --   -0.41510  -0.39289  -0.36906  -0.32123
 Alpha virt. eigenvalues --    0.00650   0.01954   0.03348   0.04260   0.05223
 Alpha virt. eigenvalues --    0.06287   0.07535   0.07960   0.08846   0.12200
 Alpha virt. eigenvalues --    0.13161   0.14391   0.17608   0.17988   0.19330

 Mulliken charges:
               1
     1  O   -0.273955
     2  O   -0.312648
     3  O   -0.453938
     4  N   -0.242568
     5  C   -0.231918
     6  C    0.378354
     7  H    0.181689
     8  H    0.159590
     9  H    0.218467
    10  H    0.296195
    11  H    0.280734
 Sum of Mulliken charges =  -0.00000

 Dipole moment (field-independent basis, Debye):
    X=              1.1614    Y=             -1.7872    Z=              0.1206  Tot=              2.1348
 Quadrupole moment (field-independent basis, Debye-Ang):
   XX=            -31.9325   YY=            -33.3280   ZZ=            -37.3594
   XY=              2.9898   XZ=              1.4904   YZ=              1.9532

 Normal termination of Gaussian 16 at Sun Apr  7 21:10:44 2019.
