 Gaussian 16, Revision A.03,
 Gaussian 16:  EM64L-G16RevA.03 25-Dec-2016

 ----------------------------------------------
 #p m062x/6-311+g(2df,2p) Opt=(CalcFC,ModRedun)
 ----------------------------------------------

 ----------------------------------------
 Gaussian Input Prepared from Scan Object
 ----------------------------------------
 Symbolic Z-matrix:
 Charge =  0 Multiplicity = 1

 SCF Done:  E(RM062X) =  -359.593946866     A.U. after   13 cycles

  Exact polarizability:   0.000   0.000   0.000   0.000   0.000   0.000
 Approx polarizability:  51.989  -2.907  59.642   1.190  -1.132  44.731

 Optimization completed.
    -- Stationary point found.
 SCF Done:  E(RM062X) =  -359.593317570     A.U. after   12 cycles
 SCF Done:  E(RM062X) =  -359.593449256     A.U. after   11 cycles
 SCF Done:  E(RM062X) =  -359.593450184     A.U. after    9 cycles
 Optimization completed.
 SCF Done:  E(RM062X) =  -359.591858753     A.U. after   12 cycles
 SCF Done:  E(RM062X) =  -359.592008537     A.U. after   11 cycles
 SCF Done:  E(RM062X) =  -359.592009033     A.U. after    8 cycles
 SCF Done:  E(RM062X) =  -359.589561522     A.U. after   12 cycles
 SCF Done:  E(RM062X) =  -359.589739083     A.U. after   11 cycles
 SCF Done:  E(RM062X) =  -359.589739664     A.U. after    8 cycles
 SCF Done:  E(RM062X) =  -359.591824450     A.U. after   11 cycles
 SCF Done:  E(RM062X) =  -359.591988845     A.U. after   11 cycles
 SCF Done:  E(RM062X) =  -359.591990013     A.U. after    9 cycles
 SCF Done:  E(RM062X) =  -359.593312297     A.U. after   11 cycles
 SCF Done:  E(RM062X) =  -359.593446367     A.U. after   10 cycles
 SCF Done:  E(RM062X) =  -359.593447752     A.U. after    9 cycles
 SCF Done:  E(RM062X) =  -359.593447813     A.U. after    8 cycles
    -- Stationary point found.
 SCF Done:  E(RM062X) =  -359.593820261     A.U. after   12 cycles
 SCF Done:  E(RM062X) =  -359.593945926     A.U. after   11 cycles
 SCF Done:  E(RM062X) =  -359.593946853     A.U. after    9 cycles
 Optimization completed.
    -- Stationary point found.

                         Standard orientation:
 ---------------------------------------------------------------------
 Center     Atomic      Atomic             Coordinates (Angstroms)
 Number     Number       Type             X           Y           Z
 ---------------------------------------------------------------------
      1          8           0       -1.927019    0.471336    0.522947
      2          8           0        2.087419   -0.408250    0.259840
      3          8           0        0.718825    1.257302   -0.331620
      4          7           0       -1.438781   -0.404307   -0.478030
      5          6           0       -0.184800   -0.957695   -0.019628
      6          6           0        0.888720    0.103159   -0.064173
      7          1           0       -0.224811   -1.342691    1.005971
      8          1           0        0.108333   -1.775446   -0.679588
      9          1           0       -2.135377   -1.138090   -0.521188
     10          1           0       -1.663337    1.337452    0.196551
     11          1           0        2.729343    0.313040    0.237938
 ---------------------------------------------------------------------

 The electronic state is 1-A.
 Alpha  occ. eigenvalues --  -19.68339 -19.65071 -19.62967 -14.79785 -10.68771
 Alpha  occ. eigenvalues --  -10.58984  -1.25423  -1.19770  -1.15723  -0.96308
 Alpha  occ. eigenvalues --   -0.82530  -0.70255  -0.61561  -0.60121  -0.59055
 Alpha  occ. eigenvalues --   -0.56369  -0.55285  -0.51358  -0.48537  -0.47761
 Alpha  occ. eigenvalues --   -0.41515  -0.39290  -0.36906  -0.32121
 Alpha virt. eigenvalues --    0.00650   0.01955   0.03348   0.04260   0.05223
 Alpha virt. eigenvalues --    0.06288   0.07535   0.07960   0.08846   0.12200
 Alpha virt. eigenvalues --    0.13161   0.14392   0.17608   0.17990   0.19330

 Mulliken charges:
               1
     1  O   -0.273937
     2  O   -0.312535
     3  O   -0.453841
     4  N   -0.242641
     5  C   -0.232129
     6  C    0.378514
     7  H    0.181692
     8  H    0.159562
     9  H    0.218467
    10  H    0.296196
    11  H    0.280653
 Sum of Mulliken charges =  -0.00000

 Dipole moment (field-independent basis, Debye):
    X=              1.1636    Y=             -1.7865    Z=              0.1203  Tot=              2.1355
 Quadrupole moment (field-independent basis, Debye-Ang):
   XX=            -31.9321   YY=            -33.3296   ZZ=            -37.3581
   XY=              2.9888   XZ=              1.4890   YZ=              1.9492

 Normal termination of Gaussian 16 at Tue Mar 12 03:12:59 2019.
