 Gaussian 16, Revision A.03,
 Gaussian 16:  EM64L-G16RevA.03 25-Dec-2016

 ----------------------------------------------------------------------
 #p m062x/6-311+g(2df,2p) opt=(calcfc,verytight,gdiis,maxcycles=900) fr
 eq iop(7/33=1,2/16=3)
 ----------------------------------------------------------------------

 ------------------------------
 Gaussian input prepared by ASE
 ------------------------------
 Symbolic Z-matrix:
 Charge =  0 Multiplicity = 1

 SCF Done:  E(RM062X) =  -359.574504651     A.U. after   13 cycles
 SCF Done:  E(RM062X) =  -359.591077410     A.U. after   12 cycles
 SCF Done:  E(RM062X) =  -359.591562355     A.U. after   14 cycles
 SCF Done:  E(RM062X) =  -359.592418981     A.U. after   13 cycles
 SCF Done:  E(RM062X) =  -359.592483924     A.U. after   11 cycles
 SCF Done:  E(RM062X) =  -359.592488854     A.U. after    9 cycles
 SCF Done:  E(RM062X) =  -359.592489081     A.U. after    8 cycles
 SCF Done:  E(RM062X) =  -359.592489100     A.U. after    7 cycles
 SCF Done:  E(RM062X) =  -359.592489102     A.U. after    5 cycles
 SCF Done:  E(RM062X) =  -359.592489102     A.U. after    2 cycles
 Optimization completed.
    -- Stationary point found.
 Normal termination of Gaussian 16 at Tue Apr  9 00:09:48 2019.

 ----------------------------------------------------------------------
 #P Geom=AllCheck Guess=TCheck SCRF=Check Test GenChk RM062X/6-311+G(2d
 f,2p) Freq
 ----------------------------------------------------------------------

 Structure from the checkpoint file:  "/scratch/underkoffler.c/gaussian_scratch/Gau-9481.chk"
 ------------------------------
 Gaussian input prepared by ASE
 ------------------------------
 Charge =  0 Multiplicity = 1

                         Standard orientation:
 ---------------------------------------------------------------------
 Center     Atomic      Atomic             Coordinates (Angstroms)
 Number     Number       Type             X           Y           Z
 ---------------------------------------------------------------------
      1          8           0        2.522660   -0.149761   -0.213667
      2          8           0       -2.084622   -0.790872    0.041211
      3          8           0       -1.223884    1.269318   -0.072677
      4          7           0        1.304246    0.328091    0.330562
      5          6           0        0.265336   -0.612234   -0.041502
      6          6           0       -1.069467    0.082560   -0.015672
      7          1           0        0.251557   -1.463053    0.637985
      8          1           0        0.408647   -1.001771   -1.057177
      9          1           0        1.120605    1.207406   -0.143210
     10          1           0        3.108639   -0.204807    0.544198
     11          1           0       -2.907619   -0.285848    0.008384
 ---------------------------------------------------------------------

 SCF Done:  E(RM062X) =  -359.592489102     A.U. after    1 cycles

 The electronic state is 1-A.
 Alpha  occ. eigenvalues --  -19.68663 -19.65854 -19.63294 -14.79579 -10.69262
 Alpha  occ. eigenvalues --  -10.58698  -1.25776  -1.20107  -1.16200  -0.96535
 Alpha  occ. eigenvalues --   -0.82034  -0.70406  -0.62917  -0.60056  -0.59735
 Alpha  occ. eigenvalues --   -0.55873  -0.53882  -0.52871  -0.48335  -0.47927
 Alpha  occ. eigenvalues --   -0.41642  -0.39520  -0.37143  -0.32466
 Alpha virt. eigenvalues --    0.00680   0.02642   0.03316   0.04001   0.04912
 Alpha virt. eigenvalues --    0.05960   0.07857   0.07926   0.10514   0.11861
 Alpha virt. eigenvalues --    0.12556   0.13482   0.17194   0.17923   0.18704

 Mulliken charges:
               1
     1  O   -0.265002
     2  O   -0.301275
     3  O   -0.437552
     4  N   -0.305284
     5  C   -0.133024
     6  C    0.308836
     7  H    0.154862
     8  H    0.164301
     9  H    0.239050
    10  H    0.294030
    11  H    0.281058
 Sum of Mulliken charges =  -0.00000

 Dipole moment (field-independent basis, Debye):
    X=             -0.5104    Y=             -1.3568    Z=              0.2782  Tot=              1.4761
 Quadrupole moment (field-independent basis, Debye-Ang):
   XX=            -28.0612   YY=            -38.5881   ZZ=            -35.5711
   XY=              1.0100   XZ=              3.0701   YZ=             -1.0359

  Exact polarizability:  55.915  -0.465  45.631   0.203   0.350  34.212
 Approx polarizability:  55.588  -0.892  57.383  -0.045   0.038  42.468

                      1                      2                      3
                      A                      A                      A
 Frequencies --     88.6429               101.8884               218.8050
 Red. masses --      2.9670                 4.5394                 4.6688
 Frc consts  --      0.0137                 0.0278                 0.1317
 IR Inten    --      0.0952                 1.9844                 3.7984

                      4                      5                      6
                      A                      A                      A
 Frequencies --    328.5512               402.3408               457.8271
 Red. masses --      1.2145                 5.2482                 4.0524
 Frc consts  --      0.0772                 0.5005                 0.5005
 IR Inten    --     99.9570                10.1154                11.5911

                      7                      8                      9
                      A                      A                      A
 Frequencies --    535.3181               652.2024               669.8213
 Red. masses --      1.4812                 2.7202                 2.2222
 Frc consts  --      0.2501                 0.6817                 0.5874
 IR Inten    --     36.1541                72.6766                68.8350

                     10                     11                     12
                      A                      A                      A
 Frequencies --    888.3724               950.2678              1034.8504
 Red. masses --      1.9525                 2.4683                 2.6849
 Frc consts  --      0.9079                 1.3132                 1.6941
 IR Inten    --     56.5197                40.6952                 4.0495

                     13                     14                     15
                      A                      A                      A
 Frequencies --   1106.2145              1162.6851              1209.4471
 Red. masses --      2.5057                 2.4697                 2.0035
 Frc consts  --      1.8066                 1.9670                 1.7267
 IR Inten    --     82.1053                72.0537               171.5798

                     16                     17                     18
                      A                      A                      A
 Frequencies --   1250.7219              1315.0925              1392.5926
 Red. masses --      1.3221                 1.4729                 1.2294
 Frc consts  --      1.2185                 1.5009                 1.4048
 IR Inten    --      8.9866                 2.2106                67.3717

                     19                     20                     21
                      A                      A                      A
 Frequencies --   1430.9498              1493.4247              1524.7577
 Red. masses --      2.2624                 1.1038                 1.1643
 Frc consts  --      2.7294                 1.4505                 1.5949
 IR Inten    --     88.6118                20.0664                 1.3973

                     22                     23                     24
                      A                      A                      A
 Frequencies --   1872.9471              3028.0062              3122.4699
 Red. masses --     10.2965                 1.0695                 1.0915
 Frc consts  --     21.2810                 5.7778                 6.2700
 IR Inten    --    333.5103                17.1401                 6.5815

                     25                     26                     27
                      A                      A                      A
 Frequencies --   3529.9532              3827.2548              3895.0783
 Red. masses --      1.0752                 1.0644                 1.0682
 Frc consts  --      7.8934                 9.1865                 9.5485
 IR Inten    --     15.3475               102.0329                73.1579

 - Thermochemistry -
 -------------------
 Temperature   298.150 Kelvin.  Pressure   1.00000 Atm.
 Atom     1 has atomic number  8 and mass  15.99491

 Molecular mass:    91.02694 amu.
 Principal axes and moments of inertia in atomic units:
                           1         2         3
     Eigenvalues --   182.81425 919.956851072.45382
           X            0.99998   0.00353   0.00489
           Y           -0.00351   0.99999  -0.00367
           Z           -0.00490   0.00366   0.99998
 This molecule is an asymmetric top.
 Rotational symmetry number  1.
 Rotational temperatures (Kelvin)      0.47378     0.09415     0.08076
 Rotational constants (GHZ):           9.87199     1.96177     1.68281
 Zero-point vibrational energy     224242.9 (Joules/Mol)
                                   53.59534 (Kcal/Mol)
 Warning -- explicit consideration of   7 degrees of freedom as
           vibrations may cause significant error
 Vibrational temperatures:    127.54   146.59   314.81   472.71   578.88
          (Kelvin)            658.71   770.20   938.37   963.72  1278.17
                             1367.22  1488.92  1591.60  1672.84  1740.12
                             1799.51  1892.12  2003.63  2058.82  2148.70
                             2193.79  2694.75  4356.63  4492.54  5078.82
                             5506.57  5604.15

 Zero-point correction=                           0.085410 (Hartree/Particle)
 Thermal correction to Energy=                    0.091912
 Thermal correction to Enthalpy=                  0.092856
 Thermal correction to Gibbs Free Energy=         0.054799
 Sum of electronic and zero-point Energies=           -359.507079
 Sum of electronic and thermal Energies=              -359.500577
 Sum of electronic and thermal Enthalpies=            -359.499633
 Sum of electronic and thermal Free Energies=         -359.537690

                     E (Thermal)             CV                S
                      KCal/Mol        Cal/Mol-Kelvin    Cal/Mol-Kelvin
 Total                   57.675             21.769             80.096
 Electronic               0.000              0.000              0.000
 Translational            0.889              2.981             39.438
 Rotational               0.889              2.981             26.692
 Vibrational             55.898             15.807             13.967
 Vibration     1          0.601              1.957              3.690
 Vibration     2          0.604              1.948              3.418
 Vibration     3          0.647              1.812              1.969
 Vibration     4          0.712              1.618              1.267
 Vibration     5          0.768              1.465              0.954
 Vibration     6          0.816              1.344              0.772
 Vibration     7          0.890              1.172              0.575

 Optimization completed.
    -- Stationary point found.
 Normal termination of Gaussian 16 at Tue Apr  9 00:12:14 2019.
