 Gaussian 16, Revision A.03,
 Gaussian 16:  EM64L-G16RevA.03 25-Dec-2016

 ----------------------------------------------
 #p m062x/6-311+g(2df,2p) Opt=(CalcFC,ModRedun)
 ----------------------------------------------

 ----------------------------------------
 Gaussian Input Prepared from Scan Object
 ----------------------------------------
 Symbolic Z-matrix:
 Charge =  0 Multiplicity = 1

 SCF Done:  E(RM062X) =  -359.593946866     A.U. after   13 cycles

  Exact polarizability:   0.000   0.000   0.000   0.000   0.000   0.000
 Approx polarizability:  51.989  -2.907  59.642   1.190  -1.132  44.731

 Optimization completed.
    -- Stationary point found.
 SCF Done:  E(RM062X) =  -359.592671024     A.U. after   12 cycles
 SCF Done:  E(RM062X) =  -359.593742411     A.U. after   12 cycles
 SCF Done:  E(RM062X) =  -359.593755009     A.U. after   10 cycles
 SCF Done:  E(RM062X) =  -359.593755061     A.U. after    6 cycles
 Optimization completed.
 SCF Done:  E(RM062X) =  -359.592095792     A.U. after   12 cycles
 SCF Done:  E(RM062X) =  -359.593160046     A.U. after   12 cycles
 SCF Done:  E(RM062X) =  -359.593176807     A.U. after   10 cycles
 SCF Done:  E(RM062X) =  -359.591138323     A.U. after   12 cycles
 SCF Done:  E(RM062X) =  -359.592216673     A.U. after   12 cycles
 SCF Done:  E(RM062X) =  -359.593211674     A.U. after   12 cycles
 SCF Done:  E(RM062X) =  -359.593221599     A.U. after   10 cycles
 SCF Done:  E(RM062X) =  -359.592626319     A.U. after   11 cycles
 SCF Done:  E(RM062X) =  -359.593749191     A.U. after   12 cycles
 SCF Done:  E(RM062X) =  -359.593759182     A.U. after   10 cycles
 SCF Done:  E(RM062X) =  -359.593759356     A.U. after    8 cycles
 SCF Done:  E(RM062X) =  -359.593759397     A.U. after    7 cycles
    -- Stationary point found.
 SCF Done:  E(RM062X) =  -359.592844940     A.U. after   11 cycles
 SCF Done:  E(RM062X) =  -359.593936181     A.U. after   12 cycles
 SCF Done:  E(RM062X) =  -359.593946817     A.U. after   10 cycles
 Optimization completed.
    -- Stationary point found.

                         Standard orientation:
 ---------------------------------------------------------------------
 Center     Atomic      Atomic             Coordinates (Angstroms)
 Number     Number       Type             X           Y           Z
 ---------------------------------------------------------------------
      1          8           0       -1.926929    0.471242    0.523272
      2          8           0        2.087082   -0.408537    0.260243
      3          8           0        0.719074    1.257381   -0.331994
      4          7           0       -1.438927   -0.404211   -0.478004
      5          6           0       -0.184781   -0.957522   -0.020057
      6          6           0        0.888686    0.103266   -0.064389
      7          1           0       -0.224394   -1.342775    1.005481
      8          1           0        0.108387   -1.774910   -0.680413
      9          1           0       -2.135572   -1.137937   -0.521159
     10          1           0       -1.662450    1.337387    0.197591
     11          1           0        2.729262    0.312549    0.239036
 ---------------------------------------------------------------------

 The electronic state is 1-A.
 Alpha  occ. eigenvalues --  -19.68340 -19.65071 -19.62970 -14.79784 -10.68771
 Alpha  occ. eigenvalues --  -10.58983  -1.25424  -1.19770  -1.15727  -0.96308
 Alpha  occ. eigenvalues --   -0.82534  -0.70255  -0.61561  -0.60121  -0.59055
 Alpha  occ. eigenvalues --   -0.56375  -0.55285  -0.51356  -0.48538  -0.47761
 Alpha  occ. eigenvalues --   -0.41518  -0.39293  -0.36910  -0.32118
 Alpha virt. eigenvalues --    0.00650   0.01954   0.03347   0.04260   0.05223
 Alpha virt. eigenvalues --    0.06287   0.07535   0.07960   0.08847   0.12200
 Alpha virt. eigenvalues --    0.13162   0.14392   0.17609   0.17990   0.19331

 Mulliken charges:
               1
     1  O   -0.274019
     2  O   -0.312530
     3  O   -0.453754
     4  N   -0.242595
     5  C   -0.232114
     6  C    0.378481
     7  H    0.181682
     8  H    0.159584
     9  H    0.218467
    10  H    0.296163
    11  H    0.280636
 Sum of Mulliken charges =   0.00000

 Dipole moment (field-independent basis, Debye):
    X=              1.1652    Y=             -1.7865    Z=              0.1218  Tot=              2.1364
 Quadrupole moment (field-independent basis, Debye-Ang):
   XX=            -31.9341   YY=            -33.3324   ZZ=            -37.3578
   XY=              2.9895   XZ=              1.4919   YZ=              1.9553

 Normal termination of Gaussian 16 at Mon Mar 11 20:54:56 2019.
