 Gaussian 16, Revision A.03,
 Gaussian 16:  EM64L-G16RevA.03 25-Dec-2016

 ----------------------------------------------
 #p m062x/6-311+g(2df,2p) Opt=(CalcFC,ModRedun)
 ----------------------------------------------

 ----------------------------------------
 Gaussian Input Prepared from Scan Object
 ----------------------------------------
 Symbolic Z-matrix:
 Charge =  0 Multiplicity = 1

 SCF Done:  E(RM062X) =  -359.593946866     A.U. after   13 cycles

  Exact polarizability:   0.000   0.000   0.000   0.000   0.000   0.000
 Approx polarizability:  51.989  -2.907  59.642   1.190  -1.132  44.731

 Optimization completed.
    -- Stationary point found.
 SCF Done:  E(RM062X) =  -359.580366577     A.U. after   13 cycles
 SCF Done:  E(RM062X) =  -359.588741621     A.U. after   12 cycles
 SCF Done:  E(RM062X) =  -359.589945858     A.U. after   12 cycles
 SCF Done:  E(RM062X) =  -359.590049911     A.U. after   11 cycles
 SCF Done:  E(RM062X) =  -359.590054822     A.U. after   10 cycles
 SCF Done:  E(RM062X) =  -359.590054954     A.U. after    8 cycles
 Optimization completed.
 SCF Done:  E(RM062X) =  -359.569094682     A.U. after   13 cycles
 SCF Done:  E(RM062X) =  -359.578588231     A.U. after   12 cycles
 SCF Done:  E(RM062X) =  -359.580576737     A.U. after   12 cycles
 SCF Done:  E(RM062X) =  -359.589568983     A.U. after    8 cycles
 SCF Done:  E(RM062X) =  -359.589569116     A.U. after    8 cycles
    -- Stationary point found.
 SCF Done:  E(RM062X) =  -359.580850026     A.U. after   12 cycles
 SCF Done:  E(RM062X) =  -359.589917319     A.U. after   12 cycles
 SCF Done:  E(RM062X) =  -359.591113086     A.U. after   12 cycles
 SCF Done:  E(RM062X) =  -359.591625050     A.U. after   12 cycles
 SCF Done:  E(RM062X) =  -359.591775239     A.U. after   11 cycles
 SCF Done:  E(RM062X) =  -359.591801369     A.U. after   11 cycles
 SCF Done:  E(RM062X) =  -359.591803611     A.U. after    9 cycles
 SCF Done:  E(RM062X) =  -359.591805346     A.U. after    8 cycles
 Optimization completed.
    -- Stationary point found.

                         Standard orientation:
 ---------------------------------------------------------------------
 Center     Atomic      Atomic             Coordinates (Angstroms)
 Number     Number       Type             X           Y           Z
 ---------------------------------------------------------------------
      1          8           0       -1.870258   -0.446880   -0.597250
      2          8           0        0.732419   -1.202468    0.360850
      3          8           0        2.081793    0.426697   -0.353196
      4          7           0       -1.410074    0.321293    0.501342
      5          6           0       -0.193004    0.991362    0.100303
      6          6           0        0.998574    0.064203    0.005610
      7          1           0       -0.272406    1.494662   -0.868316
      8          1           0        0.051499    1.743407    0.852230
      9          1           0       -2.137631    1.012721    0.640330
     10          1           0       -1.711032   -1.352073   -0.316170
     11          1           0        1.555034   -1.699951    0.263821
 ---------------------------------------------------------------------

 The electronic state is 1-A.
 Alpha  occ. eigenvalues --  -19.68295 -19.65793 -19.62404 -14.80178 -10.68606
 Alpha  occ. eigenvalues --  -10.58988  -1.25268  -1.20241  -1.15464  -0.96717
 Alpha  occ. eigenvalues --   -0.81974  -0.70954  -0.61266  -0.60762  -0.58280
 Alpha  occ. eigenvalues --   -0.56804  -0.55735  -0.50904  -0.48763  -0.47608
 Alpha  occ. eigenvalues --   -0.41341  -0.39105  -0.36872  -0.32736
 Alpha virt. eigenvalues --    0.00670   0.01915   0.03449   0.04383   0.05258
 Alpha virt. eigenvalues --    0.06434   0.07333   0.07631   0.09048   0.12553
 Alpha virt. eigenvalues --    0.12736   0.14080   0.16697   0.18549   0.19420

 Mulliken charges:
               1
     1  O   -0.263928
     2  O   -0.336464
     3  O   -0.425271
     4  N   -0.275582
     5  C   -0.110585
     6  C    0.264441
     7  H    0.179051
     8  H    0.153715
     9  H    0.229655
    10  H    0.289086
    11  H    0.295880
 Sum of Mulliken charges =  -0.00000

 Dipole moment (field-independent basis, Debye):
    X=             -0.9946    Y=             -0.4024    Z=              0.9723  Tot=              1.4479
 Quadrupole moment (field-independent basis, Debye-Ang):
   XX=            -39.9217   YY=            -27.8771   ZZ=            -37.3487
   XY=             -5.6697   XZ=              0.5077   YZ=              1.8000

 Normal termination of Gaussian 16 at Fri Mar 29 18:33:43 2019.
