 Gaussian 16, Revision A.03,
 Gaussian 16:  EM64L-G16RevA.03 25-Dec-2016

 ----------------------------------------------
 #p m062x/6-311+g(2df,2p) Opt=(CalcFC,ModRedun)
 ----------------------------------------------

 ----------------------------------------
 Gaussian Input Prepared from Scan Object
 ----------------------------------------
 Symbolic Z-matrix:
 Charge =  0 Multiplicity = 1

 SCF Done:  E(RM062X) =  -359.593946866     A.U. after   13 cycles

  Exact polarizability:   0.000   0.000   0.000   0.000   0.000   0.000
 Approx polarizability:  51.989  -2.907  59.642   1.190  -1.132  44.731

 Optimization completed.
    -- Stationary point found.
 SCF Done:  E(RM062X) =  -359.580524633     A.U. after   13 cycles
 SCF Done:  E(RM062X) =  -359.590373076     A.U. after   13 cycles
 SCF Done:  E(RM062X) =  -359.592257750     A.U. after   12 cycles
 SCF Done:  E(RM062X) =  -359.592346423     A.U. after   10 cycles
 SCF Done:  E(RM062X) =  -359.592348632     A.U. after    9 cycles
 SCF Done:  E(RM062X) =  -359.592348758     A.U. after    8 cycles
 Optimization completed.
 SCF Done:  E(RM062X) =  -359.575936018     A.U. after   12 cycles
 SCF Done:  E(RM062X) =  -359.586557292     A.U. after   13 cycles
 SCF Done:  E(RM062X) =  -359.589009922     A.U. after   12 cycles
 SCF Done:  E(RM062X) =  -359.592281286     A.U. after   12 cycles
 SCF Done:  E(RM062X) =  -359.592355504     A.U. after   11 cycles
 SCF Done:  E(RM062X) =  -359.592356062     A.U. after   10 cycles
 SCF Done:  E(RM062X) =  -359.592359618     A.U. after    9 cycles
    -- Stationary point found.
 SCF Done:  E(RM062X) =  -359.582658374     A.U. after   13 cycles
 SCF Done:  E(RM062X) =  -359.592438894     A.U. after   13 cycles
 SCF Done:  E(RM062X) =  -359.593796121     A.U. after   12 cycles
 SCF Done:  E(RM062X) =  -359.593935412     A.U. after   11 cycles
 SCF Done:  E(RM062X) =  -359.593946318     A.U. after    9 cycles
 SCF Done:  E(RM062X) =  -359.593946860     A.U. after    7 cycles
 Optimization completed.
    -- Stationary point found.

                         Standard orientation:
 ---------------------------------------------------------------------
 Center     Atomic      Atomic             Coordinates (Angstroms)
 Number     Number       Type             X           Y           Z
 ---------------------------------------------------------------------
      1          8           0       -1.926834    0.471220    0.523350
      2          8           0        2.087220   -0.408381    0.260218
      3          8           0        0.718993    1.257315   -0.331970
      4          7           0       -1.438902   -0.404150   -0.478035
      5          6           0       -0.184790   -0.957638   -0.020059
      6          6           0        0.888713    0.103225   -0.064272
      7          1           0       -0.224746   -1.343013    1.005396
      8          1           0        0.108441   -1.775031   -0.680395
      9          1           0       -2.135505   -1.137935   -0.521178
     10          1           0       -1.663759    1.337498    0.196886
     11          1           0        2.729313    0.312777    0.238737
 ---------------------------------------------------------------------

 The electronic state is 1-A.
 Alpha  occ. eigenvalues --  -19.68338 -19.65072 -19.62967 -14.79785 -10.68770
 Alpha  occ. eigenvalues --  -10.58983  -1.25422  -1.19770  -1.15724  -0.96308
 Alpha  occ. eigenvalues --   -0.82530  -0.70253  -0.61561  -0.60121  -0.59053
 Alpha  occ. eigenvalues --   -0.56370  -0.55284  -0.51358  -0.48537  -0.47760
 Alpha  occ. eigenvalues --   -0.41515  -0.39288  -0.36906  -0.32123
 Alpha virt. eigenvalues --    0.00651   0.01955   0.03349   0.04260   0.05224
 Alpha virt. eigenvalues --    0.06287   0.07535   0.07960   0.08846   0.12200
 Alpha virt. eigenvalues --    0.13161   0.14389   0.17608   0.17990   0.19330

 Mulliken charges:
               1
     1  O   -0.273950
     2  O   -0.312534
     3  O   -0.453787
     4  N   -0.242680
     5  C   -0.232069
     6  C    0.378424
     7  H    0.181697
     8  H    0.159576
     9  H    0.218487
    10  H    0.296198
    11  H    0.280639
 Sum of Mulliken charges =  -0.00000

 Dipole moment (field-independent basis, Debye):
    X=              1.1627    Y=             -1.7861    Z=              0.1205  Tot=              2.1346
 Quadrupole moment (field-independent basis, Debye-Ang):
   XX=            -31.9277   YY=            -33.3304   ZZ=            -37.3588
   XY=              2.9855   XZ=              1.4918   YZ=              1.9526

 Normal termination of Gaussian 16 at Fri Mar 29 18:15:07 2019.
