 Gaussian 16, Revision A.03,
 Gaussian 16:  EM64L-G16RevA.03 25-Dec-2016

 ----------------------------------------------
 #p m062x/6-311+g(2df,2p) Opt=(CalcFC,ModRedun)
 ----------------------------------------------

 ----------------------------------------
 Gaussian Input Prepared from Scan Object
 ----------------------------------------
 Symbolic Z-matrix:
 Charge =  0 Multiplicity = 1

 SCF Done:  E(RM062X) =  -359.593946866     A.U. after   13 cycles

  Exact polarizability:   0.000   0.000   0.000   0.000   0.000   0.000
 Approx polarizability:  51.989  -2.907  59.642   1.190  -1.132  44.731

 Optimization completed.
    -- Stationary point found.
 SCF Done:  E(RM062X) =  -359.593225490     A.U. after   11 cycles
 SCF Done:  E(RM062X) =  -359.593745371     A.U. after   11 cycles
 SCF Done:  E(RM062X) =  -359.593749927     A.U. after   10 cycles
 SCF Done:  E(RM062X) =  -359.593750017     A.U. after    8 cycles
 Optimization completed.
 SCF Done:  E(RM062X) =  -359.592698434     A.U. after   11 cycles
 SCF Done:  E(RM062X) =  -359.593201408     A.U. after   11 cycles
 SCF Done:  E(RM062X) =  -359.593204112     A.U. after    9 cycles
 SCF Done:  E(RM062X) =  -359.593204223     A.U. after    7 cycles
 SCF Done:  E(RM062X) =  -359.591868383     A.U. after   11 cycles
 SCF Done:  E(RM062X) =  -359.592975403     A.U. after   11 cycles
 SCF Done:  E(RM062X) =  -359.592978502     A.U. after   10 cycles
 SCF Done:  E(RM062X) =  -359.592978563     A.U. after    8 cycles
 SCF Done:  E(RM062X) =  -359.593138514     A.U. after   11 cycles
 SCF Done:  E(RM062X) =  -359.593720344     A.U. after   11 cycles
 SCF Done:  E(RM062X) =  -359.593722599     A.U. after   10 cycles
 SCF Done:  E(RM062X) =  -359.593722669     A.U. after    7 cycles
    -- Stationary point found.
 SCF Done:  E(RM062X) =  -359.593393813     A.U. after   11 cycles
 SCF Done:  E(RM062X) =  -359.593945036     A.U. after   11 cycles
 SCF Done:  E(RM062X) =  -359.593946807     A.U. after    9 cycles
 Optimization completed.
    -- Stationary point found.

                         Standard orientation:
 ---------------------------------------------------------------------
 Center     Atomic      Atomic             Coordinates (Angstroms)
 Number     Number       Type             X           Y           Z
 ---------------------------------------------------------------------
      1          8           0       -1.925860    0.471632    0.523700
      2          8           0        2.087000   -0.408119    0.260574
      3          8           0        0.718484    1.257079   -0.332470
      4          7           0       -1.439066   -0.404249   -0.477823
      5          6           0       -0.184821   -0.957966   -0.020415
      6          6           0        0.888455    0.103092   -0.064488
      7          1           0       -0.224238   -1.343533    1.004970
      8          1           0        0.108176   -1.775245   -0.681025
      9          1           0       -2.135986   -1.137777   -0.520105
     10          1           0       -1.662204    1.337623    0.196904
     11          1           0        2.728922    0.313180    0.238999
 ---------------------------------------------------------------------

 The electronic state is 1-A.
 Alpha  occ. eigenvalues --  -19.68339 -19.65070 -19.62968 -14.79785 -10.68771
 Alpha  occ. eigenvalues --  -10.58983  -1.25422  -1.19769  -1.15725  -0.96306
 Alpha  occ. eigenvalues --   -0.82531  -0.70254  -0.61562  -0.60118  -0.59055
 Alpha  occ. eigenvalues --   -0.56372  -0.55282  -0.51357  -0.48535  -0.47763
 Alpha  occ. eigenvalues --   -0.41517  -0.39288  -0.36907  -0.32122
 Alpha virt. eigenvalues --    0.00650   0.01954   0.03347   0.04261   0.05224
 Alpha virt. eigenvalues --    0.06286   0.07535   0.07960   0.08849   0.12200
 Alpha virt. eigenvalues --    0.13163   0.14389   0.17608   0.17989   0.19332

 Mulliken charges:
               1
     1  O   -0.274007
     2  O   -0.312536
     3  O   -0.453826
     4  N   -0.242638
     5  C   -0.231832
     6  C    0.378226
     7  H    0.181695
     8  H    0.159597
     9  H    0.218480
    10  H    0.296206
    11  H    0.280633
 Sum of Mulliken charges =  -0.00000

 Dipole moment (field-independent basis, Debye):
    X=              1.1637    Y=             -1.7864    Z=              0.1206  Tot=              2.1354
 Quadrupole moment (field-independent basis, Debye-Ang):
   XX=            -31.9286   YY=            -33.3281   ZZ=            -37.3616
   XY=              2.9917   XZ=              1.4896   YZ=              1.9521

 Normal termination of Gaussian 16 at Mon Mar 11 21:30:09 2019.
