 Gaussian 16, Revision A.03,
 Gaussian 16:  EM64L-G16RevA.03 25-Dec-2016

 ----------------------------------------------
 #p m062x/6-311+g(2df,2p) Opt=(CalcFC,ModRedun)
 ----------------------------------------------

 ----------------------------------------
 Gaussian Input Prepared from Scan Object
 ----------------------------------------
 Symbolic Z-matrix:
 Charge =  0 Multiplicity = 1

 SCF Done:  E(RM062X) =  -359.593946866     A.U. after   13 cycles

  Exact polarizability:   0.000   0.000   0.000   0.000   0.000   0.000
 Approx polarizability:  51.989  -2.907  59.642   1.190  -1.132  44.731

 Optimization completed.
    -- Stationary point found.
 SCF Done:  E(RM062X) =  -359.593217270     A.U. after   11 cycles
 SCF Done:  E(RM062X) =  -359.593711864     A.U. after   10 cycles
 SCF Done:  E(RM062X) =  -359.593713835     A.U. after    8 cycles
 Optimization completed.
 SCF Done:  E(RM062X) =  -359.592584990     A.U. after   11 cycles
 SCF Done:  E(RM062X) =  -359.593079213     A.U. after   10 cycles
 SCF Done:  E(RM062X) =  -359.593081417     A.U. after    8 cycles
 SCF Done:  E(RM062X) =  -359.591630161     A.U. after   11 cycles
 SCF Done:  E(RM062X) =  -359.592127088     A.U. after   10 cycles
 SCF Done:  E(RM062X) =  -359.592129149     A.U. after    8 cycles
 SCF Done:  E(RM062X) =  -359.591138163     A.U. after   11 cycles
 SCF Done:  E(RM062X) =  -359.592237535     A.U. after   11 cycles
 SCF Done:  E(RM062X) =  -359.592767473     A.U. after   10 cycles
 SCF Done:  E(RM062X) =  -359.592767658     A.U. after    7 cycles
 SCF Done:  E(RM062X) =  -359.593163171     A.U. after   11 cycles
 SCF Done:  E(RM062X) =  -359.593671331     A.U. after   10 cycles
 SCF Done:  E(RM062X) =  -359.593674827     A.U. after    9 cycles
    -- Stationary point found.
 SCF Done:  E(RM062X) =  -359.593444481     A.U. after   11 cycles
 SCF Done:  E(RM062X) =  -359.593943871     A.U. after   10 cycles
 SCF Done:  E(RM062X) =  -359.593946836     A.U. after    8 cycles
 Optimization completed.
    -- Stationary point found.

                         Standard orientation:
 ---------------------------------------------------------------------
 Center     Atomic      Atomic             Coordinates (Angstroms)
 Number     Number       Type             X           Y           Z
 ---------------------------------------------------------------------
      1          8           0       -1.926593    0.471171    0.523519
      2          8           0        2.087193   -0.408306    0.260347
      3          8           0        0.718786    1.257202   -0.332135
      4          7           0       -1.438865   -0.403997   -0.478155
      5          6           0       -0.184841   -0.957697   -0.020117
      6          6           0        0.888660    0.103186   -0.064354
      7          1           0       -0.224845   -1.342925    1.005388
      8          1           0        0.108269   -1.775269   -0.680314
      9          1           0       -2.135656   -1.137629   -0.521302
     10          1           0       -1.662975    1.337449    0.197611
     11          1           0        2.729258    0.312869    0.238684
 ---------------------------------------------------------------------

 The electronic state is 1-A.
 Alpha  occ. eigenvalues --  -19.68339 -19.65070 -19.62968 -14.79785 -10.68770
 Alpha  occ. eigenvalues --  -10.58983  -1.25422  -1.19771  -1.15726  -0.96306
 Alpha  occ. eigenvalues --   -0.82530  -0.70254  -0.61561  -0.60121  -0.59054
 Alpha  occ. eigenvalues --   -0.56371  -0.55284  -0.51357  -0.48536  -0.47761
 Alpha  occ. eigenvalues --   -0.41517  -0.39288  -0.36907  -0.32123
 Alpha virt. eigenvalues --    0.00651   0.01955   0.03349   0.04260   0.05223
 Alpha virt. eigenvalues --    0.06287   0.07535   0.07960   0.08846   0.12200
 Alpha virt. eigenvalues --    0.13161   0.14391   0.17608   0.17990   0.19330

 Mulliken charges:
               1
     1  O   -0.273978
     2  O   -0.312532
     3  O   -0.453752
     4  N   -0.242612
     5  C   -0.232128
     6  C    0.378414
     7  H    0.181721
     8  H    0.159570
     9  H    0.218489
    10  H    0.296176
    11  H    0.280631
 Sum of Mulliken charges =  -0.00000

 Dipole moment (field-independent basis, Debye):
    X=              1.1636    Y=             -1.7859    Z=              0.1209  Tot=              2.1349
 Quadrupole moment (field-independent basis, Debye-Ang):
   XX=            -31.9292   YY=            -33.3300   ZZ=            -37.3593
   XY=              2.9884   XZ=              1.4901   YZ=              1.9552

 Normal termination of Gaussian 16 at Sun Apr  7 21:20:23 2019.
