 Gaussian 16, Revision A.03,
 Gaussian 16:  EM64L-G16RevA.03 25-Dec-2016

 ----------------------------------------------
 #p m062x/6-311+g(2df,2p) Opt=(CalcFC,ModRedun)
 ----------------------------------------------

 ----------------------------------------
 Gaussian Input Prepared from Scan Object
 ----------------------------------------
 Symbolic Z-matrix:
 Charge =  0 Multiplicity = 1

 SCF Done:  E(RM062X) =  -359.593946866     A.U. after   13 cycles

  Exact polarizability:   0.000   0.000   0.000   0.000   0.000   0.000
 Approx polarizability:  51.989  -2.907  59.642   1.190  -1.132  44.731

 Optimization completed.
    -- Stationary point found.
 SCF Done:  E(RM062X) =  -359.592621703     A.U. after   11 cycles
 SCF Done:  E(RM062X) =  -359.593751744     A.U. after   12 cycles
 SCF Done:  E(RM062X) =  -359.593759365     A.U. after    9 cycles
 Optimization completed.
 SCF Done:  E(RM062X) =  -359.592057838     A.U. after   11 cycles
 SCF Done:  E(RM062X) =  -359.593212163     A.U. after   12 cycles
 SCF Done:  E(RM062X) =  -359.593221633     A.U. after   10 cycles
 SCF Done:  E(RM062X) =  -359.591187155     A.U. after   11 cycles
 SCF Done:  E(RM062X) =  -359.592384778     A.U. after   12 cycles
 SCF Done:  E(RM062X) =  -359.592394916     A.U. after   10 cycles
 SCF Done:  E(RM062X) =  -359.593168666     A.U. after   12 cycles
 SCF Done:  E(RM062X) =  -359.593176752     A.U. after   10 cycles
 SCF Done:  E(RM062X) =  -359.593176859     A.U. after    7 cycles
 SCF Done:  E(RM062X) =  -359.592627905     A.U. after   12 cycles
 SCF Done:  E(RM062X) =  -359.593749846     A.U. after   12 cycles
 SCF Done:  E(RM062X) =  -359.593754995     A.U. after    9 cycles
    -- Stationary point found.
 SCF Done:  E(RM062X) =  -359.592824028     A.U. after   12 cycles
 SCF Done:  E(RM062X) =  -359.593940208     A.U. after   12 cycles
 SCF Done:  E(RM062X) =  -359.593946799     A.U. after    9 cycles
 SCF Done:  E(RM062X) =  -359.593946861     A.U. after    7 cycles
 Optimization completed.
    -- Stationary point found.

                         Standard orientation:
 ---------------------------------------------------------------------
 Center     Atomic      Atomic             Coordinates (Angstroms)
 Number     Number       Type             X           Y           Z
 ---------------------------------------------------------------------
      1          8           0       -1.926797    0.471344    0.523254
      2          8           0        2.087292   -0.408240    0.260194
      3          8           0        0.718790    1.257225   -0.331982
      4          7           0       -1.438894   -0.404217   -0.477974
      5          6           0       -0.184813   -0.957713   -0.019979
      6          6           0        0.888698    0.103158   -0.064288
      7          1           0       -0.224533   -1.343079    1.005485
      8          1           0        0.108314   -1.775204   -0.680277
      9          1           0       -2.135574   -1.137927   -0.521010
     10          1           0       -1.662871    1.337471    0.197085
     11          1           0        2.729337    0.312956    0.238412
 ---------------------------------------------------------------------

 The electronic state is 1-A.
 Alpha  occ. eigenvalues --  -19.68340 -19.65071 -19.62968 -14.79785 -10.68771
 Alpha  occ. eigenvalues --  -10.58984  -1.25423  -1.19770  -1.15725  -0.96307
 Alpha  occ. eigenvalues --   -0.82531  -0.70255  -0.61561  -0.60120  -0.59055
 Alpha  occ. eigenvalues --   -0.56372  -0.55284  -0.51358  -0.48536  -0.47761
 Alpha  occ. eigenvalues --   -0.41516  -0.39290  -0.36907  -0.32120
 Alpha virt. eigenvalues --    0.00650   0.01954   0.03348   0.04260   0.05223
 Alpha virt. eigenvalues --    0.06287   0.07535   0.07960   0.08847   0.12200
 Alpha virt. eigenvalues --    0.13162   0.14391   0.17608   0.17989   0.19331

 Mulliken charges:
               1
     1  O   -0.273975
     2  O   -0.312538
     3  O   -0.453791
     4  N   -0.242609
     5  C   -0.232052
     6  C    0.378402
     7  H    0.181686
     8  H    0.159576
     9  H    0.218470
    10  H    0.296181
    11  H    0.280651
 Sum of Mulliken charges =  -0.00000

 Dipole moment (field-independent basis, Debye):
    X=              1.1645    Y=             -1.7864    Z=              0.1206  Tot=              2.1359
 Quadrupole moment (field-independent basis, Debye-Ang):
   XX=            -31.9310   YY=            -33.3298   ZZ=            -37.3591
   XY=              2.9896   XZ=              1.4894   YZ=              1.9524

 Normal termination of Gaussian 16 at Tue Mar 12 03:14:37 2019.
