 Gaussian 16, Revision A.03,
 Gaussian 16:  EM64L-G16RevA.03 25-Dec-2016

 ----------------------------------------------
 #p m062x/6-311+g(2df,2p) Opt=(CalcFC,ModRedun)
 ----------------------------------------------

 ----------------------------------------
 Gaussian Input Prepared from Scan Object
 ----------------------------------------
 Symbolic Z-matrix:
 Charge =  0 Multiplicity = 1

 SCF Done:  E(RM062X) =  -359.593946866     A.U. after   13 cycles

  Exact polarizability:   0.000   0.000   0.000   0.000   0.000   0.000
 Approx polarizability:  51.989  -2.907  59.642   1.190  -1.132  44.731

 Optimization completed.
    -- Stationary point found.
 SCF Done:  E(RM062X) =  -359.592451318     A.U. after   11 cycles
 SCF Done:  E(RM062X) =  -359.593328504     A.U. after   10 cycles
 SCF Done:  E(RM062X) =  -359.593332844     A.U. after    9 cycles
 SCF Done:  E(RM062X) =  -359.593333005     A.U. after    7 cycles
 Optimization completed.
 SCF Done:  E(RM062X) =  -359.590509705     A.U. after   11 cycles
 SCF Done:  E(RM062X) =  -359.591396830     A.U. after   11 cycles
 SCF Done:  E(RM062X) =  -359.591407007     A.U. after    9 cycles
 SCF Done:  E(RM062X) =  -359.591407219     A.U. after    7 cycles
 SCF Done:  E(RM062X) =  -359.587154749     A.U. after   11 cycles
 SCF Done:  E(RM062X) =  -359.591944145     A.U. after   11 cycles
 SCF Done:  E(RM062X) =  -359.591951325     A.U. after    9 cycles
 SCF Done:  E(RM062X) =  -359.592364281     A.U. after   11 cycles
 SCF Done:  E(RM062X) =  -359.593385963     A.U. after   11 cycles
 SCF Done:  E(RM062X) =  -359.593396096     A.U. after   10 cycles
 SCF Done:  E(RM062X) =  -359.593400226     A.U. after    9 cycles
    -- Stationary point found.
 SCF Done:  E(RM062X) =  -359.593027399     A.U. after   11 cycles
 SCF Done:  E(RM062X) =  -359.593942451     A.U. after   10 cycles
 SCF Done:  E(RM062X) =  -359.593946569     A.U. after    9 cycles
 SCF Done:  E(RM062X) =  -359.593946864     A.U. after    7 cycles
 Optimization completed.
    -- Stationary point found.

                         Standard orientation:
 ---------------------------------------------------------------------
 Center     Atomic      Atomic             Coordinates (Angstroms)
 Number     Number       Type             X           Y           Z
 ---------------------------------------------------------------------
      1          8           0       -1.926818    0.471283    0.523246
      2          8           0        2.087281   -0.408300    0.260140
      3          8           0        0.718847    1.257276   -0.331912
      4          7           0       -1.438879   -0.404201   -0.478013
      5          6           0       -0.184799   -0.957672   -0.019949
      6          6           0        0.888696    0.103190   -0.064264
      7          1           0       -0.224618   -1.342936    1.005560
      8          1           0        0.108292   -1.775194   -0.680207
      9          1           0       -2.135476   -1.137983   -0.521095
     10          1           0       -1.663261    1.337462    0.196920
     11          1           0        2.729350    0.312873    0.238398
 ---------------------------------------------------------------------

 The electronic state is 1-A.
 Alpha  occ. eigenvalues --  -19.68339 -19.65071 -19.62967 -14.79785 -10.68770
 Alpha  occ. eigenvalues --  -10.58983  -1.25422  -1.19771  -1.15724  -0.96308
 Alpha  occ. eigenvalues --   -0.82530  -0.70254  -0.61561  -0.60121  -0.59054
 Alpha  occ. eigenvalues --   -0.56370  -0.55284  -0.51358  -0.48536  -0.47761
 Alpha  occ. eigenvalues --   -0.41515  -0.39289  -0.36907  -0.32121
 Alpha virt. eigenvalues --    0.00650   0.01954   0.03348   0.04260   0.05223
 Alpha virt. eigenvalues --    0.06288   0.07535   0.07960   0.08846   0.12200
 Alpha virt. eigenvalues --    0.13162   0.14390   0.17608   0.17990   0.19330

 Mulliken charges:
               1
     1  O   -0.273958
     2  O   -0.312539
     3  O   -0.453796
     4  N   -0.242631
     5  C   -0.232070
     6  C    0.378429
     7  H    0.181691
     8  H    0.159569
     9  H    0.218470
    10  H    0.296190
    11  H    0.280644
 Sum of Mulliken charges =  -0.00000

 Dipole moment (field-independent basis, Debye):
    X=              1.1637    Y=             -1.7863    Z=              0.1204  Tot=              2.1353
 Quadrupole moment (field-independent basis, Debye-Ang):
   XX=            -31.9298   YY=            -33.3301   ZZ=            -37.3588
   XY=              2.9880   XZ=              1.4900   YZ=              1.9518

 Normal termination of Gaussian 16 at Sun Apr  7 21:39:13 2019.
