 Gaussian 16, Revision A.03,
 Gaussian 16:  EM64L-G16RevA.03 25-Dec-2016

 ----------------------------------------------
 #p m062x/6-311+g(2df,2p) Opt=(CalcFC,ModRedun)
 ----------------------------------------------

 ----------------------------------------
 Gaussian Input Prepared from Scan Object
 ----------------------------------------
 Symbolic Z-matrix:
 Charge =  0 Multiplicity = 1

 SCF Done:  E(RM062X) =  -359.593946866     A.U. after   13 cycles

  Exact polarizability:   0.000   0.000   0.000   0.000   0.000   0.000
 Approx polarizability:  51.989  -2.907  59.642   1.190  -1.132  44.731

 Optimization completed.
    -- Stationary point found.
 SCF Done:  E(RM062X) =  -359.593314497     A.U. after   12 cycles
 SCF Done:  E(RM062X) =  -359.593447482     A.U. after   11 cycles
 SCF Done:  E(RM062X) =  -359.593447809     A.U. after    7 cycles
 Optimization completed.
 SCF Done:  E(RM062X) =  -359.591843811     A.U. after   12 cycles
 SCF Done:  E(RM062X) =  -359.591989660     A.U. after   11 cycles
 SCF Done:  E(RM062X) =  -359.591989992     A.U. after    8 cycles
 SCF Done:  E(RM062X) =  -359.589525284     A.U. after   12 cycles
 SCF Done:  E(RM062X) =  -359.589704866     A.U. after   10 cycles
 SCF Done:  E(RM062X) =  -359.589705109     A.U. after    8 cycles
 SCF Done:  E(RM062X) =  -359.589739782     A.U. after    8 cycles
 SCF Done:  E(RM062X) =  -359.591838391     A.U. after   11 cycles
 SCF Done:  E(RM062X) =  -359.592007963     A.U. after   11 cycles
 SCF Done:  E(RM062X) =  -359.592009045     A.U. after    9 cycles
 SCF Done:  E(RM062X) =  -359.593305205     A.U. after   12 cycles
 SCF Done:  E(RM062X) =  -359.593449262     A.U. after   11 cycles
 SCF Done:  E(RM062X) =  -359.593450211     A.U. after   10 cycles
    -- Stationary point found.
 SCF Done:  E(RM062X) =  -359.593812447     A.U. after   12 cycles
 SCF Done:  E(RM062X) =  -359.593946398     A.U. after   11 cycles
 SCF Done:  E(RM062X) =  -359.593946865     A.U. after    9 cycles
 Optimization completed.
    -- Stationary point found.

                         Standard orientation:
 ---------------------------------------------------------------------
 Center     Atomic      Atomic             Coordinates (Angstroms)
 Number     Number       Type             X           Y           Z
 ---------------------------------------------------------------------
      1          8           0       -1.926885    0.471265    0.523294
      2          8           0        2.087262   -0.408329    0.260215
      3          8           0        0.718954    1.257278   -0.331962
      4          7           0       -1.438887   -0.404142   -0.478010
      5          6           0       -0.184820   -0.957667   -0.020013
      6          6           0        0.888712    0.103176   -0.064288
      7          1           0       -0.224602   -1.343024    1.005461
      8          1           0        0.108246   -1.775161   -0.680328
      9          1           0       -2.135521   -1.137886   -0.521224
     10          1           0       -1.663250    1.337461    0.197068
     11          1           0        2.729335    0.312839    0.238518
 ---------------------------------------------------------------------

 The electronic state is 1-A.
 Alpha  occ. eigenvalues --  -19.68339 -19.65072 -19.62967 -14.79785 -10.68771
 Alpha  occ. eigenvalues --  -10.58984  -1.25422  -1.19771  -1.15724  -0.96308
 Alpha  occ. eigenvalues --   -0.82530  -0.70254  -0.61561  -0.60121  -0.59054
 Alpha  occ. eigenvalues --   -0.56371  -0.55284  -0.51358  -0.48537  -0.47761
 Alpha  occ. eigenvalues --   -0.41515  -0.39290  -0.36907  -0.32121
 Alpha virt. eigenvalues --    0.00650   0.01954   0.03348   0.04260   0.05223
 Alpha virt. eigenvalues --    0.06287   0.07535   0.07960   0.08846   0.12200
 Alpha virt. eigenvalues --    0.13161   0.14391   0.17608   0.17990   0.19330

 Mulliken charges:
               1
     1  O   -0.273962
     2  O   -0.312539
     3  O   -0.453789
     4  N   -0.242621
     5  C   -0.232061
     6  C    0.378411
     7  H    0.181688
     8  H    0.159573
     9  H    0.218468
    10  H    0.296184
    11  H    0.280648
 Sum of Mulliken charges =  -0.00000

 Dipole moment (field-independent basis, Debye):
    X=              1.1635    Y=             -1.7865    Z=              0.1204  Tot=              2.1354
 Quadrupole moment (field-independent basis, Debye-Ang):
   XX=            -31.9303   YY=            -33.3303   ZZ=            -37.3587
   XY=              2.9877   XZ=              1.4906   YZ=              1.9530

 Normal termination of Gaussian 16 at Mon Mar 11 21:06:33 2019.
