 Gaussian 16, Revision A.03,
 Gaussian 16:  EM64L-G16RevA.03 25-Dec-2016

 ----------------------------------------------
 #p m062x/6-311+g(2df,2p) Opt=(CalcFC,ModRedun)
 ----------------------------------------------

 ----------------------------------------
 Gaussian Input Prepared from Scan Object
 ----------------------------------------
 Symbolic Z-matrix:
 Charge =  0 Multiplicity = 1

 SCF Done:  E(RM062X) =  -359.593946866     A.U. after   13 cycles

  Exact polarizability:   0.000   0.000   0.000   0.000   0.000   0.000
 Approx polarizability:  51.989  -2.907  59.642   1.190  -1.132  44.731

 Optimization completed.
    -- Stationary point found.
 SCF Done:  E(RM062X) =  -359.588073525     A.U. after   13 cycles
 SCF Done:  E(RM062X) =  -359.589667133     A.U. after   12 cycles
 SCF Done:  E(RM062X) =  -359.589704789     A.U. after   11 cycles
 SCF Done:  E(RM062X) =  -359.589705257     A.U. after    8 cycles
 Optimization completed.
 SCF Done:  E(RM062X) =  -359.577264166     A.U. after   12 cycles
 SCF Done:  E(RM062X) =  -359.580423601     A.U. after   12 cycles
 SCF Done:  E(RM062X) =  -359.580535579     A.U. after   11 cycles
 SCF Done:  E(RM062X) =  -359.580537778     A.U. after   10 cycles
 SCF Done:  E(RM062X) =  -359.580537881     A.U. after    8 cycles
 SCF Done:  E(RM062X) =  -359.580480136     A.U. after   11 cycles
 SCF Done:  E(RM062X) =  -359.580482583     A.U. after    9 cycles
 SCF Done:  E(RM062X) =  -359.586937416     A.U. after   13 cycles
 SCF Done:  E(RM062X) =  -359.589734433     A.U. after   12 cycles
 SCF Done:  E(RM062X) =  -359.589739505     A.U. after    9 cycles
 SCF Done:  E(RM062X) =  -359.589739783     A.U. after    8 cycles
    -- Stationary point found.
 SCF Done:  E(RM062X) =  -359.592444807     A.U. after   13 cycles
 SCF Done:  E(RM062X) =  -359.593845485     A.U. after   12 cycles
 SCF Done:  E(RM062X) =  -359.593940611     A.U. after   11 cycles
 SCF Done:  E(RM062X) =  -359.593946778     A.U. after   10 cycles
 Optimization completed.
    -- Stationary point found.

                         Standard orientation:
 ---------------------------------------------------------------------
 Center     Atomic      Atomic             Coordinates (Angstroms)
 Number     Number       Type             X           Y           Z
 ---------------------------------------------------------------------
      1          8           0       -1.927466    0.470927    0.523118
      2          8           0        2.087294   -0.408728    0.259997
      3          8           0        0.719261    1.257643   -0.331665
      4          7           0       -1.438810   -0.404145   -0.478129
      5          6           0       -0.184742   -0.957398   -0.019927
      6          6           0        0.888769    0.103511   -0.064113
      7          1           0       -0.224473   -1.342731    1.005574
      8          1           0        0.108485   -1.775020   -0.680005
      9          1           0       -2.135228   -1.138064   -0.521830
     10          1           0       -1.663623    1.337218    0.197310
     11          1           0        2.729632    0.312200    0.238495
 ---------------------------------------------------------------------

 The electronic state is 1-A.
 Alpha  occ. eigenvalues --  -19.68338 -19.65073 -19.62973 -14.79785 -10.68773
 Alpha  occ. eigenvalues --  -10.58983  -1.25418  -1.19772  -1.15728  -0.96309
 Alpha  occ. eigenvalues --   -0.82530  -0.70251  -0.61562  -0.60121  -0.59054
 Alpha  occ. eigenvalues --   -0.56370  -0.55285  -0.51358  -0.48537  -0.47761
 Alpha  occ. eigenvalues --   -0.41518  -0.39293  -0.36909  -0.32120
 Alpha virt. eigenvalues --    0.00650   0.01954   0.03348   0.04260   0.05222
 Alpha virt. eigenvalues --    0.06288   0.07535   0.07961   0.08845   0.12200
 Alpha virt. eigenvalues --    0.13161   0.14391   0.17608   0.17991   0.19329

 Mulliken charges:
               1
     1  O   -0.273946
     2  O   -0.312559
     3  O   -0.453633
     4  N   -0.242656
     5  C   -0.232202
     6  C    0.378507
     7  H    0.181688
     8  H    0.159586
     9  H    0.218453
    10  H    0.296161
    11  H    0.280601
 Sum of Mulliken charges =  -0.00000

 Dipole moment (field-independent basis, Debye):
    X=              1.1637    Y=             -1.7861    Z=              0.1206  Tot=              2.1352
 Quadrupole moment (field-independent basis, Debye-Ang):
   XX=            -31.9332   YY=            -33.3328   ZZ=            -37.3573
   XY=              2.9854   XZ=              1.4923   YZ=              1.9541

 Normal termination of Gaussian 16 at Fri Mar 29 17:57:09 2019.
