 Gaussian 16, Revision A.03,
 Gaussian 16:  EM64L-G16RevA.03 25-Dec-2016

 ----------------------------------------------
 #p m062x/6-311+g(2df,2p) Opt=(CalcFC,ModRedun)
 ----------------------------------------------

 ----------------------------------------
 Gaussian Input Prepared from Scan Object
 ----------------------------------------
 Symbolic Z-matrix:
 Charge =  0 Multiplicity = 1

 SCF Done:  E(RM062X) =  -359.593946866     A.U. after   13 cycles

  Exact polarizability:   0.000   0.000   0.000   0.000   0.000   0.000
 Approx polarizability:  51.989  -2.907  59.642   1.190  -1.132  44.731

 Optimization completed.
    -- Stationary point found.
 SCF Done:  E(RM062X) =  -359.592601880     A.U. after   11 cycles
 SCF Done:  E(RM062X) =  -359.593649728     A.U. after   11 cycles
 SCF Done:  E(RM062X) =  -359.593660719     A.U. after   10 cycles
 Optimization completed.
 SCF Done:  E(RM062X) =  -359.591734562     A.U. after   11 cycles
 SCF Done:  E(RM062X) =  -359.592817600     A.U. after   11 cycles
 SCF Done:  E(RM062X) =  -359.592833336     A.U. after   10 cycles
 SCF Done:  E(RM062X) =  -359.592833483     A.U. after    8 cycles
 SCF Done:  E(RM062X) =  -359.590412584     A.U. after   11 cycles
 SCF Done:  E(RM062X) =  -359.591581390     A.U. after   12 cycles
 SCF Done:  E(RM062X) =  -359.592854864     A.U. after   12 cycles
 SCF Done:  E(RM062X) =  -359.592866402     A.U. after   10 cycles
 SCF Done:  E(RM062X) =  -359.592866681     A.U. after    8 cycles
 SCF Done:  E(RM062X) =  -359.592556193     A.U. after   11 cycles
 SCF Done:  E(RM062X) =  -359.593654598     A.U. after   11 cycles
 SCF Done:  E(RM062X) =  -359.593663919     A.U. after   10 cycles
 SCF Done:  E(RM062X) =  -359.593664129     A.U. after    7 cycles
    -- Stationary point found.
 SCF Done:  E(RM062X) =  -359.592880166     A.U. after   11 cycles
 SCF Done:  E(RM062X) =  -359.593937135     A.U. after   11 cycles
 SCF Done:  E(RM062X) =  -359.593946813     A.U. after    9 cycles
 Optimization completed.
    -- Stationary point found.

                         Standard orientation:
 ---------------------------------------------------------------------
 Center     Atomic      Atomic             Coordinates (Angstroms)
 Number     Number       Type             X           Y           Z
 ---------------------------------------------------------------------
      1          8           0       -1.927564    0.470904    0.523118
      2          8           0        2.087327   -0.408592    0.260023
      3          8           0        0.719302    1.257499   -0.331687
      4          7           0       -1.438839   -0.404129   -0.478139
      5          6           0       -0.184730   -0.957302   -0.019897
      6          6           0        0.888875    0.103369   -0.064067
      7          1           0       -0.224391   -1.342922    1.005471
      8          1           0        0.108705   -1.774591   -0.680334
      9          1           0       -2.135186   -1.138128   -0.521647
     10          1           0       -1.664272    1.337276    0.197116
     11          1           0        2.729627    0.312377    0.238521
 ---------------------------------------------------------------------

 The electronic state is 1-A.
 Alpha  occ. eigenvalues --  -19.68339 -19.65073 -19.62967 -14.79786 -10.68769
 Alpha  occ. eigenvalues --  -10.58982  -1.25422  -1.19772  -1.15725  -0.96309
 Alpha  occ. eigenvalues --   -0.82533  -0.70254  -0.61560  -0.60122  -0.59053
 Alpha  occ. eigenvalues --   -0.56372  -0.55286  -0.51359  -0.48538  -0.47758
 Alpha  occ. eigenvalues --   -0.41515  -0.39290  -0.36907  -0.32122
 Alpha virt. eigenvalues --    0.00650   0.01955   0.03350   0.04260   0.05224
 Alpha virt. eigenvalues --    0.06288   0.07535   0.07961   0.08845   0.12200
 Alpha virt. eigenvalues --    0.13162   0.14389   0.17608   0.17990   0.19330

 Mulliken charges:
               1
     1  O   -0.273929
     2  O   -0.312540
     3  O   -0.453736
     4  N   -0.242696
     5  C   -0.232134
     6  C    0.378500
     7  H    0.181678
     8  H    0.159568
     9  H    0.218482
    10  H    0.296168
    11  H    0.280639
 Sum of Mulliken charges =  -0.00000

 Dipole moment (field-independent basis, Debye):
    X=              1.1637    Y=             -1.7863    Z=              0.1208  Tot=              2.1353
 Quadrupole moment (field-independent basis, Debye-Ang):
   XX=            -31.9290   YY=            -33.3332   ZZ=            -37.3571
   XY=              2.9826   XZ=              1.4926   YZ=              1.9534

 Normal termination of Gaussian 16 at Sun Apr  7 21:32:21 2019.
