 Gaussian 16, Revision A.03,
 Gaussian 16:  EM64L-G16RevA.03 25-Dec-2016

 ----------------------------------------------------------------------
 #p m062x/6-311+g(2df,2p) opt=(calcfc,verytight,gdiis,maxcycles=900) fr
 eq iop(7/33=1,2/16=3)
 ----------------------------------------------------------------------

 ------------------------------
 Gaussian input prepared by ASE
 ------------------------------
 Symbolic Z-matrix:
 Charge =  0 Multiplicity = 1

 SCF Done:  E(RM062X) =  -359.573773742     A.U. after   13 cycles
 SCF Done:  E(RM062X) =  -359.590191139     A.U. after   12 cycles
 SCF Done:  E(RM062X) =  -359.591885622     A.U. after   14 cycles
 SCF Done:  E(RM062X) =  -359.593660233     A.U. after   12 cycles
 SCF Done:  E(RM062X) =  -359.593756619     A.U. after   10 cycles
 SCF Done:  E(RM062X) =  -359.593824358     A.U. after   11 cycles
 SCF Done:  E(RM062X) =  -359.593838437     A.U. after    9 cycles
 SCF Done:  E(RM062X) =  -359.593848786     A.U. after   10 cycles
 SCF Done:  E(RM062X) =  -359.593880513     A.U. after   10 cycles
 SCF Done:  E(RM062X) =  -359.593920482     A.U. after   11 cycles
 SCF Done:  E(RM062X) =  -359.593922887     A.U. after    8 cycles
 SCF Done:  E(RM062X) =  -359.593923436     A.U. after    9 cycles
 SCF Done:  E(RM062X) =  -359.593923428     A.U. after    8 cycles
 SCF Done:  E(RM062X) =  -359.593923430     A.U. after    4 cycles
 SCF Done:  E(RM062X) =  -359.593923429     A.U. after    3 cycles
 SCF Done:  E(RM062X) =  -359.593923429     A.U. after    3 cycles
 SCF Done:  E(RM062X) =  -359.593923429     A.U. after    2 cycles
 SCF Done:  E(RM062X) =  -359.593923429     A.U. after    2 cycles
 Optimization completed.
    -- Stationary point found.
 Normal termination of Gaussian 16 at Tue Apr  9 00:25:34 2019.

 ----------------------------------------------------------------------
 #P Geom=AllCheck Guess=TCheck SCRF=Check Test GenChk RM062X/6-311+G(2d
 f,2p) Freq
 ----------------------------------------------------------------------

 Structure from the checkpoint file:  "/scratch/underkoffler.c/gaussian_scratch/Gau-10838.chk"
 ------------------------------
 Gaussian input prepared by ASE
 ------------------------------
 Charge =  0 Multiplicity = 1

                         Standard orientation:
 ---------------------------------------------------------------------
 Center     Atomic      Atomic             Coordinates (Angstroms)
 Number     Number       Type             X           Y           Z
 ---------------------------------------------------------------------
      1          8           0        1.824552    0.305149   -0.764061
      2          8           0       -1.951012   -0.539868   -0.468130
      3          8           0       -0.893737    1.266404    0.321934
      4          7           0        1.506204   -0.197117    0.527837
      5          6           0        0.226861   -0.858422    0.417914
      6          6           0       -0.905568    0.093724    0.084018
      7          1           0       -0.008458   -1.320454    1.379751
      8          1           0        0.283689   -1.648482   -0.327009
      9          1           0        1.375510    0.643118    1.086250
     10          1           0        2.687044   -0.073306   -0.948262
     11          1           0       -2.647383    0.113657   -0.615124
 ---------------------------------------------------------------------

 SCF Done:  E(RM062X) =  -359.593923429     A.U. after    1 cycles

 The electronic state is 1-A.
 Alpha  occ. eigenvalues --  -19.68196 -19.65611 -19.62649 -14.79770 -10.68329
 Alpha  occ. eigenvalues --  -10.58686  -1.25155  -1.19929  -1.15550  -0.96508
 Alpha  occ. eigenvalues --   -0.81644  -0.70370  -0.61766  -0.60968  -0.59149
 Alpha  occ. eigenvalues --   -0.55410  -0.53600  -0.52503  -0.48600  -0.46613
 Alpha  occ. eigenvalues --   -0.41039  -0.38656  -0.37632  -0.32836
 Alpha virt. eigenvalues --    0.00805   0.02448   0.03518   0.04264   0.04920
 Alpha virt. eigenvalues --    0.07310   0.07500   0.07800   0.08501   0.11124
 Alpha virt. eigenvalues --    0.12316   0.15357   0.17316   0.18089   0.18629

 Mulliken charges:
               1
     1  O   -0.229080
     2  O   -0.298575
     3  O   -0.428930
     4  N   -0.339276
     5  C   -0.206016
     6  C    0.328863
     7  H    0.169424
     8  H    0.180916
     9  H    0.256210
    10  H    0.287994
    11  H    0.278471
 Sum of Mulliken charges =  -0.00000

 Dipole moment (field-independent basis, Debye):
    X=             -0.3028    Y=             -1.7274    Z=              0.1564  Tot=              1.7607
 Quadrupole moment (field-independent basis, Debye-Ang):
   XX=            -27.9430   YY=            -38.7271   ZZ=            -34.0665
   XY=             -0.7532   XZ=             -0.4289   YZ=             -0.0217

  Exact polarizability:  50.761   0.630  44.663   0.813   0.478  39.487
 Approx polarizability:  51.996   1.553  55.684   0.501   1.983  48.203

                      1                      2                      3
                      A                      A                      A
 Frequencies --     67.9998               124.9880               254.9235
 Red. masses --      4.9417                 5.7484                 2.9617
 Frc consts  --      0.0135                 0.0529                 0.1134
 IR Inten    --      0.8785                 0.0180                10.5586

                      4                      5                      6
                      A                      A                      A
 Frequencies --    341.5586               400.0716               516.7127
 Red. masses --      1.3904                 2.2049                 2.0684
 Frc consts  --      0.0956                 0.2079                 0.3254
 IR Inten    --     86.0025                26.0970                14.0538

                      7                      8                      9
                      A                      A                      A
 Frequencies --    525.2800               656.8149               682.2961
 Red. masses --      2.7393                 1.9188                 2.7638
 Frc consts  --      0.4453                 0.4877                 0.7581
 IR Inten    --     41.5212                98.4497                30.7198

                     10                     11                     12
                      A                      A                      A
 Frequencies --    859.5937               928.4711               988.0652
 Red. masses --      2.8884                 3.4072                 2.1632
 Frc consts  --      1.2575                 1.7306                 1.2443
 IR Inten    --     59.5018                23.2065                36.5875

                     13                     14                     15
                      A                      A                      A
 Frequencies --   1106.5616              1163.1110              1196.3879
 Red. masses --      2.6345                 2.2508                 2.0984
 Frc consts  --      1.9006                 1.7940                 1.7696
 IR Inten    --     48.7073                43.0670               242.9020

                     16                     17                     18
                      A                      A                      A
 Frequencies --   1285.3616              1319.1853              1383.0238
 Red. masses --      1.2143                 1.5000                 1.4168
 Frc consts  --      1.1820                 1.5380                 1.5967
 IR Inten    --     10.9384                 7.4323                73.6335

                     19                     20                     21
                      A                      A                      A
 Frequencies --   1431.1958              1451.4325              1529.9657
 Red. masses --      1.9548                 1.0851                 1.1145
 Frc consts  --      2.3592                 1.3468                 1.5370
 IR Inten    --     46.9276                13.1050                 1.0442

                     22                     23                     24
                      A                      A                      A
 Frequencies --   1879.6665              3082.2820              3153.2248
 Red. masses --     10.5578                 1.0659                 1.0980
 Frc consts  --     21.9780                 5.9663                 6.4322
 IR Inten    --    313.2404                 6.1266                 2.3583

                     25                     26                     27
                      A                      A                      A
 Frequencies --   3504.5893              3823.3681              3893.1451
 Red. masses --      1.0742                 1.0644                 1.0681
 Frc consts  --      7.7731                 9.1676                 9.5384
 IR Inten    --     12.7878                90.1732                70.8707

 - Thermochemistry -
 -------------------
 Temperature   298.150 Kelvin.  Pressure   1.00000 Atm.
 Atom     1 has atomic number  8 and mass  15.99491

 Molecular mass:    91.02694 amu.
 Principal axes and moments of inertia in atomic units:
                           1         2         3
     Eigenvalues --   254.44375 751.69683 827.12879
           X            1.00000  -0.00068   0.00295
           Y            0.00076   0.99961  -0.02803
           Z           -0.00293   0.02804   0.99960
 This molecule is an asymmetric top.
 Rotational symmetry number  1.
 Rotational temperatures (Kelvin)      0.34040     0.11522     0.10472
 Rotational constants (GHZ):           7.09289     2.40089     2.18193
 Zero-point vibrational energy     224594.5 (Joules/Mol)
                                   53.67939 (Kcal/Mol)
 Warning -- explicit consideration of   7 degrees of freedom as
           vibrations may cause significant error
 Vibrational temperatures:     97.84   179.83   366.78   491.43   575.61
          (Kelvin)            743.43   755.76   945.01   981.67  1236.76
                             1335.86  1421.61  1592.10  1673.46  1721.34
                             1849.35  1898.01  1989.86  2059.17  2088.29
                             2201.28  2704.42  4434.72  4536.79  5042.32
                             5500.97  5601.37

 Zero-point correction=                           0.085544 (Hartree/Particle)
 Thermal correction to Energy=                    0.091949
 Thermal correction to Enthalpy=                  0.092894
 Thermal correction to Gibbs Free Energy=         0.055048
 Sum of electronic and zero-point Energies=           -359.508380
 Sum of electronic and thermal Energies=              -359.501974
 Sum of electronic and thermal Enthalpies=            -359.501030
 Sum of electronic and thermal Free Energies=         -359.538876

                     E (Thermal)             CV                S
                      KCal/Mol        Cal/Mol-Kelvin    Cal/Mol-Kelvin
 Total                   57.699             21.659             79.654
 Electronic               0.000              0.000              0.000
 Translational            0.889              2.981             39.438
 Rotational               0.889              2.981             26.561
 Vibrational             55.922             15.698             13.654
 Vibration     1          0.598              1.969              4.210
 Vibration     2          0.610              1.928              3.022
 Vibration     3          0.665              1.754              1.696
 Vibration     4          0.721              1.592              1.205
 Vibration     5          0.766              1.470              0.962
 Vibration     6          0.872              1.213              0.618
 Vibration     7          0.880              1.194              0.598

                           ! Non-Optimized Parameters !
 Normal termination of Gaussian 16 at Tue Apr  9 00:29:47 2019.
