 Gaussian 16, Revision A.03,
 Gaussian 16:  EM64L-G16RevA.03 25-Dec-2016

 ----------------------------------------------------------------------
 #p m062x/6-311+g(2df,2p) opt=(calcfc,verytight,gdiis,maxcycles=900) fr
 eq iop(7/33=1,2/16=3)
 ----------------------------------------------------------------------

 ------------------------------
 Gaussian input prepared by ASE
 ------------------------------
 Symbolic Z-matrix:
 Charge =  0 Multiplicity = 1

 SCF Done:  E(RM062X) =  -359.576910917     A.U. after   13 cycles
 SCF Done:  E(RM062X) =  -359.591932059     A.U. after   12 cycles
 SCF Done:  E(RM062X) =  -359.593756938     A.U. after   13 cycles
 SCF Done:  E(RM062X) =  -359.593901843     A.U. after   11 cycles
 SCF Done:  E(RM062X) =  -359.593945645     A.U. after    9 cycles
 SCF Done:  E(RM062X) =  -359.593946770     A.U. after    8 cycles
 SCF Done:  E(RM062X) =  -359.593946858     A.U. after    8 cycles
 SCF Done:  E(RM062X) =  -359.593946866     A.U. after    6 cycles
 SCF Done:  E(RM062X) =  -359.593946866     A.U. after    4 cycles
 SCF Done:  E(RM062X) =  -359.593946866     A.U. after    3 cycles
 SCF Done:  E(RM062X) =  -359.593946866     A.U. after    2 cycles
 Optimization completed.
    -- Stationary point found.
 Normal termination of Gaussian 16 at Mon Mar 11 17:08:54 2019.

 ----------------------------------------------------------------------
 #P Geom=AllCheck Guess=TCheck SCRF=Check Test GenChk RM062X/6-311+G(2d
 f,2p) Freq
 ----------------------------------------------------------------------

 Structure from the checkpoint file:  "/scratch/underkoffler.c/gaussian_scratch/Gau-47348.chk"
 ------------------------------
 Gaussian input prepared by ASE
 ------------------------------
 Charge =  0 Multiplicity = 1

                         Standard orientation:
 ---------------------------------------------------------------------
 Center     Atomic      Atomic             Coordinates (Angstroms)
 Number     Number       Type             X           Y           Z
 ---------------------------------------------------------------------
      1          8           0       -1.926880    0.471266    0.523260
      2          8           0        2.087275   -0.408317    0.260170
      3          8           0        0.718905    1.257290   -0.331927
      4          7           0       -1.438880   -0.404190   -0.478003
      5          6           0       -0.184792   -0.957666   -0.019980
      6          6           0        0.888711    0.103200   -0.064267
      7          1           0       -0.224586   -1.343011    1.005497
      8          1           0        0.108340   -1.775140   -0.680289
      9          1           0       -2.135504   -1.137945   -0.521163
     10          1           0       -1.663353    1.337460    0.196949
     11          1           0        2.729354    0.312849    0.238476
 ---------------------------------------------------------------------

 SCF Done:  E(RM062X) =  -359.593946866     A.U. after    1 cycles

 The electronic state is 1-A.
 Alpha  occ. eigenvalues --  -19.68339 -19.65072 -19.62967 -14.79784 -10.68770
 Alpha  occ. eigenvalues --  -10.58983  -1.25422  -1.19770  -1.15724  -0.96308
 Alpha  occ. eigenvalues --   -0.82530  -0.70254  -0.61561  -0.60121  -0.59054
 Alpha  occ. eigenvalues --   -0.56371  -0.55284  -0.51358  -0.48536  -0.47761
 Alpha  occ. eigenvalues --   -0.41515  -0.39289  -0.36907  -0.32121
 Alpha virt. eigenvalues --    0.00650   0.01954   0.03349   0.04260   0.05224
 Alpha virt. eigenvalues --    0.06287   0.07535   0.07960   0.08846   0.12200
 Alpha virt. eigenvalues --    0.13161   0.14390   0.17608   0.17990   0.19330

 Mulliken charges:
               1
     1  O   -0.273960
     2  O   -0.312540
     3  O   -0.453790
     4  N   -0.242639
     5  C   -0.232065
     6  C    0.378428
     7  H    0.181688
     8  H    0.159573
     9  H    0.218473
    10  H    0.296187
    11  H    0.280645
 Sum of Mulliken charges =  -0.00000

 Dipole moment (field-independent basis, Debye):
    X=              1.1636    Y=             -1.7863    Z=              0.1204  Tot=              2.1353
 Quadrupole moment (field-independent basis, Debye-Ang):
   XX=            -31.9297   YY=            -33.3303   ZZ=            -37.3587
   XY=              2.9874   XZ=              1.4905   YZ=              1.9523

  Exact polarizability:  50.391  -1.261  48.033   1.376  -0.404  36.229
 Approx polarizability:  51.989  -2.907  59.642   1.190  -1.132  44.731

                      1                      2                      3
                      A                      A                      A
 Frequencies --     76.2856               157.7670               290.0367
 Red. masses --      5.5625                 4.6443                 3.2886
 Frc consts  --      0.0191                 0.0681                 0.1630
 IR Inten    --      1.4016                 6.0501                 2.2365

                      4                      5                      6
                      A                      A                      A
 Frequencies --    385.8250               418.7777               501.3306
 Red. masses --      3.2854                 1.2411                 1.8200
 Frc consts  --      0.2882                 0.1282                 0.2695
 IR Inten    --      7.2244               143.0704                35.4385

                      7                      8                      9
                      A                      A                      A
 Frequencies --    537.3134               637.3312               675.3407
 Red. masses --      2.4659                 1.9791                 2.8874
 Frc consts  --      0.4195                 0.4736                 0.7759
 IR Inten    --     37.6447                58.4329                80.6147

                     10                     11                     12
                      A                      A                      A
 Frequencies --    843.4292               916.5142              1016.8839
 Red. masses --      2.3438                 3.7087                 1.7456
 Frc consts  --      0.9824                 1.8355                 1.0635
 IR Inten    --     19.6774                44.7807                19.8663

                     13                     14                     15
                      A                      A                      A
 Frequencies --   1071.0730              1138.1132              1191.0888
 Red. masses --      2.0947                 3.4261                 2.4979
 Frc consts  --      1.4158                 2.6147                 2.0879
 IR Inten    --     30.1853                26.0630               298.1146

                     16                     17                     18
                      A                      A                      A
 Frequencies --   1272.5351              1326.3704              1380.3230
 Red. masses --      1.1715                 1.6270                 1.3816
 Frc consts  --      1.1177                 1.6864                 1.5510
 IR Inten    --      1.1135                35.0791                37.0622

                     19                     20                     21
                      A                      A                      A
 Frequencies --   1451.7591              1455.4707              1533.2433
 Red. masses --      1.1265                 1.9281                 1.1336
 Frc consts  --      1.3988                 2.4066                 1.5701
 IR Inten    --     19.3109                54.9303                 5.5097

                     22                     23                     24
                      A                      A                      A
 Frequencies --   1879.6028              3034.1809              3117.0238
 Red. masses --     10.3544                 1.0671                 1.0934
 Frc consts  --     21.5530                 5.7884                 6.2593
 IR Inten    --    308.1185                18.3212                 2.2458

                     25                     26                     27
                      A                      A                      A
 Frequencies --   3561.9310              3830.2648              3863.9860
 Red. masses --      1.0760                 1.0645                 1.0674
 Frc consts  --      8.0436                 9.2016                 9.3894
 IR Inten    --      9.0404                99.5844                71.4792

 - Thermochemistry -
 -------------------
 Temperature   298.150 Kelvin.  Pressure   1.00000 Atm.
 Atom     1 has atomic number  8 and mass  15.99491

 Molecular mass:    91.02694 amu.
 Principal axes and moments of inertia in atomic units:
                           1         2         3
     Eigenvalues --   233.43134 726.66162 872.16548
           X            0.99994   0.00843   0.00638
           Y           -0.00855   0.99978   0.01916
           Z           -0.00622  -0.01922   0.99980
 This molecule is an asymmetric top.
 Rotational symmetry number  1.
 Rotational temperatures (Kelvin)      0.37105     0.11919     0.09931
 Rotational constants (GHZ):           7.73136     2.48361     2.06926
 Zero-point vibrational energy     224681.4 (Joules/Mol)
                                   53.70015 (Kcal/Mol)
 Warning -- explicit consideration of   7 degrees of freedom as
           vibrations may cause significant error
 Vibrational temperatures:    109.76   226.99   417.30   555.12   602.53
          (Kelvin)            721.30   773.07   916.98   971.66  1213.51
                             1318.66  1463.07  1541.04  1637.49  1713.71
                             1830.89  1908.35  1985.98  2088.76  2094.10
                             2206.00  2704.33  4365.51  4484.70  5124.82
                             5510.90  5559.41

 Zero-point correction=                           0.085577 (Hartree/Particle)
 Thermal correction to Energy=                    0.091819
 Thermal correction to Enthalpy=                  0.092763
 Thermal correction to Gibbs Free Energy=         0.055462
 Sum of electronic and zero-point Energies=           -359.508370
 Sum of electronic and thermal Energies=              -359.502128
 Sum of electronic and thermal Enthalpies=            -359.501184
 Sum of electronic and thermal Free Energies=         -359.538485

                     E (Thermal)             CV                S
                      KCal/Mol        Cal/Mol-Kelvin    Cal/Mol-Kelvin
 Total                   57.617             21.545             78.507
 Electronic               0.000              0.000              0.000
 Translational            0.889              2.981             39.438
 Rotational               0.889              2.981             26.495
 Vibrational             55.840             15.583             12.574
 Vibration     1          0.599              1.965              3.984
 Vibration     2          0.621              1.894              2.576
 Vibration     3          0.686              1.692              1.474
 Vibration     4          0.755              1.500              1.016
 Vibration     5          0.782              1.429              0.896
 Vibration     6          0.857              1.247              0.655
 Vibration     7          0.892              1.168              0.571

                           ! Non-Optimized Parameters !
 Normal termination of Gaussian 16 at Mon Mar 11 17:12:00 2019.
