 Gaussian 16, Revision A.03,
 Gaussian 16:  EM64L-G16RevA.03 25-Dec-2016

 ----------------------------------------------
 #p m062x/6-311+g(2df,2p) Opt=(CalcFC,ModRedun)
 ----------------------------------------------

 ----------------------------------------
 Gaussian Input Prepared from Scan Object
 ----------------------------------------
 Symbolic Z-matrix:
 Charge =  0 Multiplicity = 2

 SCF Done:  E(UM062X) =  -307.020178002     A.U. after   15 cycles

  Exact polarizability:   0.000   0.000   0.000   0.000   0.000   0.000
 Approx polarizability:  67.686   0.989  68.118  -0.000   0.000  51.380

 Optimization completed.
    -- Stationary point found.
 SCF Done:  E(UM062X) =  -307.019099711     A.U. after   12 cycles
 SCF Done:  E(UM062X) =  -307.020010746     A.U. after   12 cycles
 SCF Done:  E(UM062X) =  -307.020013364     A.U. after    9 cycles
 Optimization completed.
 SCF Done:  E(UM062X) =  -307.018618090     A.U. after   12 cycles
 SCF Done:  E(UM062X) =  -307.019580714     A.U. after   12 cycles
 SCF Done:  E(UM062X) =  -307.019583885     A.U. after    8 cycles
 SCF Done:  E(UM062X) =  -307.018006537     A.U. after   12 cycles
 SCF Done:  E(UM062X) =  -307.019039218     A.U. after   12 cycles
 SCF Done:  E(UM062X) =  -307.019041231     A.U. after    8 cycles
 SCF Done:  E(UM062X) =  -307.019054703     A.U. after    8 cycles
 SCF Done:  E(UM062X) =  -307.018562439     A.U. after   12 cycles
 SCF Done:  E(UM062X) =  -307.019585721     A.U. after   12 cycles
 SCF Done:  E(UM062X) =  -307.019591002     A.U. after   10 cycles
 SCF Done:  E(UM062X) =  -307.019055756     A.U. after   12 cycles
 SCF Done:  E(UM062X) =  -307.020013306     A.U. after   12 cycles
 SCF Done:  E(UM062X) =  -307.020014619     A.U. after    9 cycles
    -- Stationary point found.
 SCF Done:  E(UM062X) =  -307.019266791     A.U. after   12 cycles
 SCF Done:  E(UM062X) =  -307.020175943     A.U. after   12 cycles
 SCF Done:  E(UM062X) =  -307.020177983     A.U. after    9 cycles
 Optimization completed.
    -- Stationary point found.

                         Standard orientation:
 ---------------------------------------------------------------------
 Center     Atomic      Atomic             Coordinates (Angstroms)
 Number     Number       Type             X           Y           Z
 ---------------------------------------------------------------------
      1          8           0        1.110135   -0.722151    0.000402
      2          8           0        0.106497    1.291304    0.000195
      3          6           0       -2.518373    0.015820   -0.000198
      4          6           0        2.361957   -0.046611   -0.000371
      5          6           0       -1.208847   -0.668826   -0.000017
      6          6           0        0.027589    0.082978    0.000160
      7          1           0       -3.107822   -0.269914    0.875016
      8          1           0       -2.383827    1.094493   -0.000347
      9          1           0       -3.107732   -0.270192   -0.875379
     10          1           0        3.120575   -0.822242    0.000005
     11          1           0        2.456386    0.581188    0.884048
     12          1           0        2.456071    0.579995   -0.885584
     13          1           0       -1.140659   -1.746718    0.000023
 ---------------------------------------------------------------------

 The electronic state is 2-A.
 Alpha  occ. eigenvalues --  -19.66487 -19.60905 -10.66401 -10.58610 -10.57731
 Alpha  occ. eigenvalues --  -10.54218  -1.23333  -1.13963  -0.90351  -0.82759
 Alpha  occ. eigenvalues --   -0.74009  -0.64122  -0.60020  -0.57210  -0.56148
 Alpha  occ. eigenvalues --   -0.51486  -0.50645  -0.47115  -0.46818  -0.44867
 Alpha  occ. eigenvalues --   -0.43142  -0.38326  -0.36233  -0.28844
 Alpha virt. eigenvalues --    0.01207   0.02485   0.03642   0.04684   0.05134
 Alpha virt. eigenvalues --    0.05745   0.06603   0.08026   0.08103   0.09184
 Alpha virt. eigenvalues --    0.10358   0.10394   0.11556   0.12048   0.14755

  Beta  occ. eigenvalues --  -19.66409 -19.60603 -10.66479 -10.58612 -10.57175
  Beta  occ. eigenvalues --  -10.54269  -1.22989  -1.13269  -0.88207  -0.82564
  Beta  occ. eigenvalues --   -0.72728  -0.63674  -0.59024  -0.56293  -0.55652
  Beta  occ. eigenvalues --   -0.51004  -0.48601  -0.46395  -0.45557  -0.44647
  Beta  occ. eigenvalues --   -0.42936  -0.36599  -0.35536
  Beta virt. eigenvalues --   -0.06728   0.00968   0.02521   0.03688   0.04366
  Beta virt. eigenvalues --    0.05050   0.05753   0.06513   0.08199   0.08498
  Beta virt. eigenvalues --    0.08546   0.09798   0.10621   0.12134   0.13146

 Mulliken charges and spin densities:
               1          2
     1  O   -0.171743   0.025321
     2  O   -0.425398   0.158885
     3  C   -0.472207  -0.032129
     4  C   -0.182150  -0.003523
     5  C   -0.024059   0.871224
     6  C    0.242427  -0.057692
     7  H    0.133034   0.034544
     8  H    0.167165   0.002856
     9  H    0.133017   0.034531
    10  H    0.131169   0.000036
    11  H    0.137986   0.001904
    12  H    0.137985   0.001911
    13  H    0.192775  -0.037868
 Sum of Mulliken charges =  -0.00000   1.00000

 Dipole moment (field-independent basis, Debye):
    X=             -0.3518    Y=             -1.7427    Z=             -0.0012  Tot=              1.7779
 Quadrupole moment (field-independent basis, Debye-Ang):
   XX=            -28.0439   YY=            -40.3361   ZZ=            -36.2279
   XY=              1.3617   XZ=             -0.0017   YZ=              0.0002

 Normal termination of Gaussian 16 at Mon Mar 11 01:46:05 2019.
