 Gaussian 16, Revision A.03,
 Gaussian 16:  EM64L-G16RevA.03 25-Dec-2016

 ----------------------------------------------
 #p m062x/6-311+g(2df,2p) Opt=(CalcFC,ModRedun)
 ----------------------------------------------

 ----------------------------------------
 Gaussian Input Prepared from Scan Object
 ----------------------------------------
 Symbolic Z-matrix:
 Charge =  0 Multiplicity = 2

 SCF Done:  E(UM062X) =  -307.020178002     A.U. after   15 cycles

  Exact polarizability:   0.000   0.000   0.000   0.000   0.000   0.000
 Approx polarizability:  67.686   0.989  68.118  -0.000   0.000  51.380

 Optimization completed.
    -- Stationary point found.
 SCF Done:  E(UM062X) =  -307.019333796     A.U. after   12 cycles
 SCF Done:  E(UM062X) =  -307.020122907     A.U. after   13 cycles
 SCF Done:  E(UM062X) =  -307.020133113     A.U. after   11 cycles
 Optimization completed.
 SCF Done:  E(UM062X) =  -307.019224565     A.U. after   12 cycles
 SCF Done:  E(UM062X) =  -307.020008174     A.U. after   12 cycles
 SCF Done:  E(UM062X) =  -307.020017133     A.U. after   11 cycles
 SCF Done:  E(UM062X) =  -307.019072805     A.U. after   12 cycles
 SCF Done:  E(UM062X) =  -307.019856625     A.U. after   12 cycles
 SCF Done:  E(UM062X) =  -307.019864462     A.U. after   11 cycles
 SCF Done:  E(UM062X) =  -307.019844222     A.U. after   12 cycles
 SCF Done:  E(UM062X) =  -307.019140750     A.U. after   12 cycles
 SCF Done:  E(UM062X) =  -307.019996228     A.U. after   13 cycles
 SCF Done:  E(UM062X) =  -307.020008538     A.U. after   11 cycles
 SCF Done:  E(UM062X) =  -307.019294114     A.U. after   12 cycles
 SCF Done:  E(UM062X) =  -307.020120605     A.U. after   13 cycles
 SCF Done:  E(UM062X) =  -307.020131801     A.U. after   11 cycles
    -- Stationary point found.
 SCF Done:  E(UM062X) =  -307.019362283     A.U. after   12 cycles
 SCF Done:  E(UM062X) =  -307.020167876     A.U. after   13 cycles
 SCF Done:  E(UM062X) =  -307.020177926     A.U. after   11 cycles
 Optimization completed.
    -- Stationary point found.

                         Standard orientation:
 ---------------------------------------------------------------------
 Center     Atomic      Atomic             Coordinates (Angstroms)
 Number     Number       Type             X           Y           Z
 ---------------------------------------------------------------------
      1          8           0        1.110043   -0.722132   -0.000079
      2          8           0        0.106704    1.291500    0.000296
      3          6           0       -2.518600    0.015626   -0.000410
      4          6           0        2.362038   -0.046880   -0.000274
      5          6           0       -1.208829   -0.668544    0.000577
      6          6           0        0.027615    0.083180    0.000234
      7          1           0       -3.108631   -0.270224    0.874363
      8          1           0       -2.384098    1.094274   -0.000801
      9          1           0       -3.107465   -0.270726   -0.875857
     10          1           0        3.120458   -0.822720   -0.000729
     11          1           0        2.456778    0.580033    0.884696
     12          1           0        2.456236    0.580548   -0.884934
     13          1           0       -1.140598   -1.746427    0.000763
 ---------------------------------------------------------------------

 The electronic state is 2-A.
 Alpha  occ. eigenvalues --  -19.66487 -19.60906 -10.66401 -10.58610 -10.57731
 Alpha  occ. eigenvalues --  -10.54220  -1.23332  -1.13962  -0.90352  -0.82760
 Alpha  occ. eigenvalues --   -0.74010  -0.64122  -0.60020  -0.57210  -0.56148
 Alpha  occ. eigenvalues --   -0.51488  -0.50643  -0.47115  -0.46819  -0.44868
 Alpha  occ. eigenvalues --   -0.43142  -0.38327  -0.36233  -0.28844
 Alpha virt. eigenvalues --    0.01207   0.02484   0.03643   0.04684   0.05134
 Alpha virt. eigenvalues --    0.05745   0.06603   0.08027   0.08103   0.09185
 Alpha virt. eigenvalues --    0.10357   0.10394   0.11556   0.12048   0.14754

  Beta  occ. eigenvalues --  -19.66408 -19.60603 -10.66480 -10.58613 -10.57175
  Beta  occ. eigenvalues --  -10.54270  -1.22988  -1.13269  -0.88208  -0.82565
  Beta  occ. eigenvalues --   -0.72730  -0.63673  -0.59024  -0.56292  -0.55651
  Beta  occ. eigenvalues --   -0.51006  -0.48599  -0.46397  -0.45557  -0.44648
  Beta  occ. eigenvalues --   -0.42937  -0.36599  -0.35536
  Beta virt. eigenvalues --   -0.06729   0.00968   0.02521   0.03688   0.04366
  Beta virt. eigenvalues --    0.05050   0.05753   0.06513   0.08199   0.08498
  Beta virt. eigenvalues --    0.08546   0.09798   0.10621   0.12135   0.13146

 Mulliken charges and spin densities:
               1          2
     1  O   -0.171732   0.025328
     2  O   -0.425391   0.158903
     3  C   -0.472269  -0.032145
     4  C   -0.182166  -0.003523
     5  C   -0.023787   0.871194
     6  C    0.242250  -0.057693
     7  H    0.133015   0.034529
     8  H    0.167134   0.002859
     9  H    0.133051   0.034567
    10  H    0.131165   0.000036
    11  H    0.137986   0.001910
    12  H    0.137987   0.001906
    13  H    0.192757  -0.037871
 Sum of Mulliken charges =  -0.00000   1.00000

 Dipole moment (field-independent basis, Debye):
    X=             -0.3522    Y=             -1.7433    Z=             -0.0009  Tot=              1.7786
 Quadrupole moment (field-independent basis, Debye-Ang):
   XX=            -28.0406   YY=            -40.3379   ZZ=            -36.2283
   XY=              1.3617   XZ=              0.0003   YZ=             -0.0015

 Normal termination of Gaussian 16 at Mon Mar 11 01:40:19 2019.
