 Gaussian 16, Revision A.03,
 Gaussian 16:  EM64L-G16RevA.03 25-Dec-2016

 ----------------------------------------------------------------------
 #p m062x/6-311+g(2df,2p) opt=(calcfc,verytight,gdiis,maxcycles=900) fr
 eq iop(7/33=1,2/16=3)
 ----------------------------------------------------------------------

 ------------------------------
 Gaussian input prepared by ASE
 ------------------------------
 Symbolic Z-matrix:
 Charge =  0 Multiplicity = 2

 SCF Done:  E(UM062X) =  -419.192487078     A.U. after   20 cycles
 SCF Done:  E(UM062X) =  -419.209742688     A.U. after   21 cycles
 SCF Done:  E(UM062X) =  -419.213457657     A.U. after   20 cycles
 SCF Done:  E(UM062X) =  -419.214668237     A.U. after   22 cycles
 SCF Done:  E(UM062X) =  -419.198145066     A.U. after   24 cycles
 SCF Done:  E(UM062X) =  -419.212404479     A.U. after   21 cycles
 SCF Done:  E(UM062X) =  -419.215703220     A.U. after   21 cycles
 SCF Done:  E(UM062X) =  -419.216399748     A.U. after   19 cycles
 SCF Done:  E(UM062X) =  -419.212148574     A.U. after   21 cycles
 SCF Done:  E(UM062X) =  -419.214650502     A.U. after   21 cycles
 SCF Done:  E(UM062X) =  -419.222527378     A.U. after   13 cycles
 SCF Done:  E(UM062X) =  -419.222527383     A.U. after    7 cycles
 SCF Done:  E(UM062X) =  -419.222527385     A.U. after    7 cycles
 SCF Done:  E(UM062X) =  -419.222527385     A.U. after    5 cycles
 SCF Done:  E(UM062X) =  -419.222527385     A.U. after    4 cycles
 SCF Done:  E(UM062X) =  -419.222527385     A.U. after    3 cycles
 SCF Done:  E(UM062X) =  -419.222527385     A.U. after    4 cycles
 SCF Done:  E(UM062X) =  -419.222527385     A.U. after    3 cycles
 SCF Done:  E(UM062X) =  -419.222527385     A.U. after    3 cycles
 Optimization completed.
    -- Stationary point found.
 Normal termination of Gaussian 16 at Thu Mar 21 18:27:25 2019.

 ----------------------------------------------------------------------
 #P Geom=AllCheck Guess=TCheck SCRF=Check Test GenChk UM062X/6-311+G(2d
 f,2p) Freq
 ----------------------------------------------------------------------

 Structure from the checkpoint file:  "/scratch/underkoffler.c/gaussian_scratch/Gau-8142.chk"
 ------------------------------
 Gaussian input prepared by ASE
 ------------------------------
 Charge =  0 Multiplicity = 2

                         Standard orientation:
 ---------------------------------------------------------------------
 Center     Atomic      Atomic             Coordinates (Angstroms)
 Number     Number       Type             X           Y           Z
 ---------------------------------------------------------------------
      1          8           0       -2.364140    1.204365    0.014447
      2          8           0       -0.079613   -0.646867   -1.269682
      3          8           0        2.422350   -0.131197   -0.189246
      4          8           0        1.903983    1.034350    0.437770
      5          6           0       -0.954614   -0.783814   -0.293159
      6          6           0       -1.277009    0.761965    0.105001
      7          6           0       -0.425667   -1.388532    1.012621
      8          1           0       -1.922631   -1.194606   -0.601629
      9          1           0        2.417877    1.731046    0.015704
     10          1           0       -0.374907    1.280301    0.462845
     11          1           0        0.458608   -0.851983    1.354078
     12          1           0       -1.197705   -1.363307    1.780864
     13          1           0       -0.152937   -2.425979    0.824771
     14          1           0        1.654795   -0.398392   -0.729723
 ---------------------------------------------------------------------

 SCF Done:  E(UM062X) =  -419.222527385     A.U. after    1 cycles

 The electronic state is 2-A.
 Alpha  occ. eigenvalues --  -19.69029 -19.68920 -19.67257 -19.66582 -10.67982
 Alpha  occ. eigenvalues --  -10.62741 -10.55545  -1.26204  -1.24706  -1.18095
 Alpha  occ. eigenvalues --   -1.01010  -0.87791  -0.76586  -0.70135  -0.62081
 Alpha  occ. eigenvalues --   -0.60388  -0.59738  -0.58475  -0.55940  -0.54917
 Alpha  occ. eigenvalues --   -0.51882  -0.50563  -0.48333  -0.47468  -0.45282
 Alpha  occ. eigenvalues --   -0.40746  -0.37377  -0.36945  -0.34002
 Alpha virt. eigenvalues --   -0.01813   0.01504   0.01893   0.03515   0.04307
 Alpha virt. eigenvalues --    0.04997   0.06789   0.06892   0.07915   0.08698
 Alpha virt. eigenvalues --    0.10095   0.10540   0.11634   0.14047   0.14788

  Beta  occ. eigenvalues --  -19.69007 -19.68617 -19.67261 -19.65392 -10.67779
  Beta  occ. eigenvalues --  -10.62766 -10.55490  -1.26173  -1.23799  -1.14393
  Beta  occ. eigenvalues --   -1.00990  -0.86555  -0.74862  -0.69236  -0.62016
  Beta  occ. eigenvalues --   -0.59721  -0.58503  -0.56681  -0.54782  -0.53551
  Beta  occ. eigenvalues --   -0.51767  -0.49379  -0.47544  -0.46501  -0.40641
  Beta  occ. eigenvalues --   -0.37234  -0.36768  -0.35283
  Beta virt. eigenvalues --   -0.12676  -0.00989   0.01490   0.01931   0.03531
  Beta virt. eigenvalues --    0.04300   0.05032   0.06859   0.06891   0.07877
  Beta virt. eigenvalues --    0.08728   0.10130   0.10591   0.11855   0.13930

 Mulliken charges and spin densities:
               1          2
     1  O   -0.238348   0.117905
     2  O   -0.271207   0.677757
     3  O   -0.291178   0.002729
     4  O   -0.329511   0.004584
     5  C   -0.101688  -0.006601
     6  C    0.151797   0.125551
     7  C   -0.453316   0.051277
     8  H    0.172315   0.007654
     9  H    0.287647   0.000279
    10  H    0.229989   0.022204
    11  H    0.202686  -0.000339
    12  H    0.153454  -0.001004
    13  H    0.162389   0.006014
    14  H    0.324972  -0.008010
 Sum of Mulliken charges =  -0.00000   1.00000

 Dipole moment (field-independent basis, Debye):
    X=             -0.3559    Y=              0.1906    Z=              0.9740  Tot=              1.0543
 Quadrupole moment (field-independent basis, Debye-Ang):
   XX=            -48.6869   YY=            -36.9985   ZZ=            -44.1779
   XY=              7.5428   XZ=             -2.5251   YZ=             -1.7584

  Exact polarizability:  69.102  -9.442  64.589  -5.376   4.713  53.998
 Approx polarizability:  77.687 -12.247  73.783  -7.851   7.562  64.375

                      1                      2                      3
                      A                      A                      A
 Frequencies --     57.2928                71.6622                97.1296
 Red. masses --      5.3062                 4.6257                 4.9970
 Frc consts  --      0.0103                 0.0140                 0.0278
 IR Inten    --     11.9916                 5.0743                 1.0610

                      4                      5                      6
                      A                      A                      A
 Frequencies --    122.4898               140.4465               212.3640
 Red. masses --      5.9044                 5.3236                 2.3878
 Frc consts  --      0.0522                 0.0619                 0.0634
 IR Inten    --     11.3709                 3.6563                24.0397

                      7                      8                      9
                      A                      A                      A
 Frequencies --    216.7222               260.4379               319.3425
 Red. masses --      1.4136                 1.2077                 2.2615
 Frc consts  --      0.0391                 0.0483                 0.1359
 IR Inten    --      4.9352               121.5814                13.7604

                     10                     11                     12
                      A                      A                      A
 Frequencies --    345.6493               414.7654               485.4002
 Red. masses --      4.7359                 4.3471                 4.2317
 Frc consts  --      0.3334                 0.4406                 0.5874
 IR Inten    --      4.2284                13.6247                63.7913

                     13                     14                     15
                      A                      A                      A
 Frequencies --    648.3586               703.8828               891.5747
 Red. masses --      2.3373                 1.3433                 2.0304
 Frc consts  --      0.5789                 0.3921                 0.9509
 IR Inten    --    213.5681               134.7071                 2.4285

                     16                     17                     18
                      A                      A                      A
 Frequencies --    967.8754               994.9325              1044.4912
 Red. masses --      1.4887                 1.5880                13.1224
 Frc consts  --      0.8217                 0.9262                 8.4348
 IR Inten    --     15.0103                17.2182                 1.7703

                     19                     20                     21
                      A                      A                      A
 Frequencies --   1066.0344              1134.5062              1283.7469
 Red. masses --      1.9853                 1.4491                 2.0780
 Frc consts  --      1.3293                 1.0989                 2.0177
 IR Inten    --      5.3343                31.8368                30.3554

                     22                     23                     24
                      A                      A                      A
 Frequencies --   1316.4559              1383.7012              1385.7812
 Red. masses --      1.2404                 1.2467                 1.1167
 Frc consts  --      1.2666                 1.4064                 1.2635
 IR Inten    --     13.7401                 3.2226                72.3379

                     25                     26                     27
                      A                      A                      A
 Frequencies --   1400.0687              1487.6977              1494.9650
 Red. masses --      1.2455                 1.0476                 1.0509
 Frc consts  --      1.4384                 1.3661                 1.3838
 IR Inten    --     14.1550                11.3690                 6.0691

                     28                     29                     30
                      A                      A                      A
 Frequencies --   1545.2396              1900.3966              3033.0572
 Red. masses --      1.0828                10.0458                 1.0861
 Frc consts  --      1.5234                21.3759                 5.8871
 IR Inten    --     38.0620               461.6887                20.2123

                     31                     32                     33
                      A                      A                      A
 Frequencies --   3040.8635              3069.8412              3151.0761
 Red. masses --      1.0946                 1.0329                 1.1031
 Frc consts  --      5.9633                 5.7350                 6.4531
 IR Inten    --      8.1507                 6.5473                 4.4969

                     34                     35                     36
                      A                      A                      A
 Frequencies --   3161.5031              3598.9111              3854.7748
 Red. masses --      1.1044                 1.0693                 1.0683
 Frc consts  --      6.5038                 8.1602                 9.3527
 IR Inten    --      1.3403               537.3245                56.2959

 - Thermochemistry -
 -------------------
 Temperature   298.150 Kelvin.  Pressure   1.00000 Atm.
 Atom     1 has atomic number  8 and mass  15.99491

 Molecular mass:   107.03443 amu.
 Principal axes and moments of inertia in atomic units:
                           1         2         3
     Eigenvalues --   531.593841206.239691385.64783
           X            0.99932   0.03550  -0.00976
           Y           -0.03618   0.99606  -0.08097
           Z            0.00685   0.08126   0.99667
 This molecule is an asymmetric top.
 Rotational symmetry number  1.
 Warning -- assumption of classical behavior for rotation
           may cause significant error
 Rotational temperatures (Kelvin)      0.16293     0.07180     0.06251
 Rotational constants (GHZ):           3.39496     1.49617     1.30245
 Zero-point vibrational energy     276956.1 (Joules/Mol)
                                   66.19409 (Kcal/Mol)
 Warning -- explicit consideration of  12 degrees of freedom as
           vibrations may cause significant error
 Vibrational temperatures:     82.43   103.11   139.75   176.24   202.07
          (Kelvin)            305.54   311.81   374.71   459.46   497.31
                              596.75   698.38   932.84  1012.73  1282.78
                             1392.56  1431.49  1502.79  1533.79  1632.30
                             1847.03  1894.09  1990.84  1993.83  2014.39
                             2140.47  2150.92  2223.26  2734.25  4363.89
                             4375.12  4416.82  4533.70  4548.70  5178.03
                             5546.16

 Zero-point correction=                           0.105487 (Hartree/Particle)
 Thermal correction to Energy=                    0.115387
 Thermal correction to Enthalpy=                  0.116331
 Thermal correction to Gibbs Free Energy=         0.069414
 Sum of electronic and zero-point Energies=           -419.117040
 Sum of electronic and thermal Energies=              -419.107140
 Sum of electronic and thermal Enthalpies=            -419.106196
 Sum of electronic and thermal Free Energies=         -419.153113

                     E (Thermal)             CV                S
                      KCal/Mol        Cal/Mol-Kelvin    Cal/Mol-Kelvin
 Total                   72.407             31.838             98.745
 Electronic               0.000              0.000              1.377
 Translational            0.889              2.981             39.921
 Rotational               0.889              2.981             28.276
 Vibrational             70.629             25.876             29.171
 Vibration     1          0.596              1.975              4.548
 Vibration     2          0.598              1.968              4.107
 Vibration     3          0.603              1.951              3.511
 Vibration     4          0.610              1.930              3.061
 Vibration     5          0.615              1.913              2.798
 Vibration     6          0.643              1.822              2.023
 Vibration     7          0.646              1.816              1.986
 Vibration     8          0.668              1.745              1.659
 Vibration     9          0.705              1.637              1.313
 Vibration    10          0.724              1.584              1.186
 Vibration    11          0.778              1.438              0.910
 Vibration    12          0.841              1.282              0.696

                           ! Non-Optimized Parameters !
 Normal termination of Gaussian 16 at Thu Mar 21 18:34:55 2019.
