 Gaussian 16, Revision A.03,
 Gaussian 16:  EM64L-G16RevA.03 25-Dec-2016

 ----------------------------------------------------------------------
 #p m062x/6-311+g(2df,2p) opt=(calcfc,verytight,gdiis,maxcycles=900) fr
 eq iop(7/33=1,2/16=3)
 ----------------------------------------------------------------------

 ------------------------------
 Gaussian input prepared by ASE
 ------------------------------
 Symbolic Z-matrix:
 Charge =  0 Multiplicity = 2

 SCF Done:  E(UM062X) =  -419.158492707     A.U. after   18 cycles
 SCF Done:  E(UM062X) =  -419.169688959     A.U. after   17 cycles
 SCF Done:  E(UM062X) =  -419.170732957     A.U. after   15 cycles
 SCF Done:  E(UM062X) =  -419.170815912     A.U. after   15 cycles
 SCF Done:  E(UM062X) =  -419.170823070     A.U. after   16 cycles
 SCF Done:  E(UM062X) =  -419.170824497     A.U. after   11 cycles
 SCF Done:  E(UM062X) =  -419.170824661     A.U. after   13 cycles
 SCF Done:  E(UM062X) =  -419.170824676     A.U. after    7 cycles
 SCF Done:  E(UM062X) =  -419.170824684     A.U. after    7 cycles
 SCF Done:  E(UM062X) =  -419.170824685     A.U. after    5 cycles
 SCF Done:  E(UM062X) =  -419.170824685     A.U. after    3 cycles
 SCF Done:  E(UM062X) =  -419.170824685     A.U. after    4 cycles
 SCF Done:  E(UM062X) =  -419.170824685     A.U. after    3 cycles
 SCF Done:  E(UM062X) =  -419.170824685     A.U. after    3 cycles
 SCF Done:  E(UM062X) =  -419.170824685     A.U. after    4 cycles
 SCF Done:  E(UM062X) =  -419.170824685     A.U. after    3 cycles
 SCF Done:  E(UM062X) =  -419.170824685     A.U. after    2 cycles
 SCF Done:  E(UM062X) =  -419.170824685     A.U. after    4 cycles
 SCF Done:  E(UM062X) =  -419.170824685     A.U. after    2 cycles
 Optimization completed.
    -- Stationary point found.
 Normal termination of Gaussian 16 at Wed Apr 10 23:24:52 2019.

 ----------------------------------------------------------------------
 #P Geom=AllCheck Guess=TCheck SCRF=Check Test GenChk UM062X/6-311+G(2d
 f,2p) Freq
 ----------------------------------------------------------------------

 Structure from the checkpoint file:  "/scratch/underkoffler.c/gaussian_scratch/Gau-10896.chk"
 ------------------------------
 Gaussian input prepared by ASE
 ------------------------------
 Charge =  0 Multiplicity = 2

                         Standard orientation:
 ---------------------------------------------------------------------
 Center     Atomic      Atomic             Coordinates (Angstroms)
 Number     Number       Type             X           Y           Z
 ---------------------------------------------------------------------
      1          8           0       -1.732666   -0.154417   -0.675711
      2          8           0        1.645407   -0.403935    0.712051
      3          8           0       -2.409163   -0.026120    0.568714
      4          8           0        2.317910   -0.659662   -0.366284
      5          6           0        0.385362    0.257979    0.428082
      6          6           0       -0.461500   -0.696780   -0.406291
      7          6           0        0.610761    1.595892   -0.235675
      8          1           0       -0.055465    0.373187    1.416600
      9          1           0       -0.549935   -1.664440    0.093695
     10          1           0       -0.007153   -0.833040   -1.387906
     11          1           0        1.107056    1.461311   -1.195300
     12          1           0       -0.352662    2.074783   -0.400666
     13          1           0        1.221997    2.238088    0.395507
     14          1           0       -3.143480   -0.639372    0.451217
 ---------------------------------------------------------------------

 SCF Done:  E(UM062X) =  -419.170824685     A.U. after    1 cycles

 The electronic state is 2-A.
 Alpha  occ. eigenvalues --  -19.75021 -19.70429 -19.69800 -19.69765 -10.61147
 Alpha  occ. eigenvalues --  -10.60532 -10.53865  -1.34607  -1.28425  -1.05426
 Alpha  occ. eigenvalues --   -1.00717  -0.87030  -0.79554  -0.70108  -0.64187
 Alpha  occ. eigenvalues --   -0.62037  -0.60569  -0.59531  -0.56847  -0.55355
 Alpha  occ. eigenvalues --   -0.51458  -0.48496  -0.46641  -0.45368  -0.43024
 Alpha  occ. eigenvalues --   -0.40693  -0.37822  -0.36795  -0.35130
 Alpha virt. eigenvalues --    0.01216   0.02510   0.02882   0.04197   0.05660
 Alpha virt. eigenvalues --    0.06031   0.06745   0.07072   0.08681   0.09588
 Alpha virt. eigenvalues --    0.10881   0.11843   0.13678   0.15496   0.16743

  Beta  occ. eigenvalues --  -19.74171 -19.70427 -19.69799 -19.68377 -10.61172
  Beta  occ. eigenvalues --  -10.60515 -10.53850  -1.31368  -1.28410  -1.05349
  Beta  occ. eigenvalues --   -0.97410  -0.85679  -0.79326  -0.69301  -0.63414
  Beta  occ. eigenvalues --   -0.60929  -0.59437  -0.56774  -0.55471  -0.52359
  Beta  occ. eigenvalues --   -0.50542  -0.46525  -0.46057  -0.44920  -0.42358
  Beta  occ. eigenvalues --   -0.40087  -0.36511  -0.34251
  Beta virt. eigenvalues --   -0.06232   0.01228   0.02532   0.02920   0.04263
  Beta virt. eigenvalues --    0.05677   0.06106   0.06817   0.07160   0.08820
  Beta virt. eigenvalues --    0.09661   0.10872   0.12005   0.13896   0.15756

 Mulliken charges and spin densities:
               1          2
     1  O   -0.136082  -0.000736
     2  O    0.047980   0.288936
     3  O   -0.270063   0.000648
     4  O   -0.177852   0.694038
     5  C   -0.175800  -0.005254
     6  C   -0.253827   0.007193
     7  C   -0.401872   0.011565
     8  H    0.204703   0.000352
     9  H    0.181022   0.002364
    10  H    0.206647   0.001194
    11  H    0.174144   0.000034
    12  H    0.162485  -0.000720
    13  H    0.153118   0.000500
    14  H    0.285395  -0.000114
 Sum of Mulliken charges =  -0.00000   1.00000

 Dipole moment (field-independent basis, Debye):
    X=             -2.3695    Y=             -0.1853    Z=              0.3491  Tot=              2.4022
 Quadrupole moment (field-independent basis, Debye-Ang):
   XX=            -44.0772   YY=            -39.5819   ZZ=            -42.1604
   XY=              6.6573   XZ=             -1.5451   YZ=              0.1350

  Exact polarizability:  64.829  -1.845  52.249  -6.253   1.284  50.879
 Approx polarizability:  68.566  -3.463  58.176  -8.496   2.211  66.901

                      1                      2                      3
                      A                      A                      A
 Frequencies --     33.3983               123.5683               144.4060
 Red. masses --      4.4126                 7.9396                 3.2134
 Frc consts  --      0.0029                 0.0714                 0.0395
 IR Inten    --      4.5606                 1.9086                 2.7817

                      4                      5                      6
                      A                      A                      A
 Frequencies --    161.0780               218.7497               245.7013
 Red. masses --      1.1945                 1.1176                 4.0567
 Frc consts  --      0.0183                 0.0315                 0.1443
 IR Inten    --    115.2005                 0.1498                11.2207

                      7                      8                      9
                      A                      A                      A
 Frequencies --    309.4162               370.8330               432.2627
 Red. masses --      5.9974                 3.9776                 2.0054
 Frc consts  --      0.3383                 0.3223                 0.2208
 IR Inten    --      3.3961                 7.7558                 4.4468

                     10                     11                     12
                      A                      A                      A
 Frequencies --    531.9845               652.2061               842.3022
 Red. masses --      4.8220                 3.7511                 2.9795
 Frc consts  --      0.8040                 0.9401                 1.2455
 IR Inten    --      8.3520                 1.0660                 2.1914

                     13                     14                     15
                      A                      A                      A
 Frequencies --    922.4293               950.5166               979.7871
 Red. masses --      1.6607                 2.1405                 3.1040
 Frc consts  --      0.8325                 1.1394                 1.7556
 IR Inten    --      2.8396                 5.7019                18.7351

                     16                     17                     18
                      A                      A                      A
 Frequencies --   1078.2053              1121.1311              1159.0011
 Red. masses --      2.0631                 5.6489                 2.1358
 Frc consts  --      1.4131                 4.1834                 1.6903
 IR Inten    --     26.4624                24.3770                 3.2715

                     19                     20                     21
                      A                      A                      A
 Frequencies --   1202.3346              1259.5691              1294.3844
 Red. masses --      2.2238                 3.5247                 1.2751
 Frc consts  --      1.8940                 3.2947                 1.2587
 IR Inten    --      1.6879                11.8943                 2.2782

                     22                     23                     24
                      A                      A                      A
 Frequencies --   1356.7719              1388.3715              1402.6099
 Red. masses --      1.3538                 1.3722                 1.3605
 Frc consts  --      1.4683                 1.5584                 1.5770
 IR Inten    --      8.3461                 3.4931                10.6850

                     25                     26                     27
                      A                      A                      A
 Frequencies --   1413.5443              1431.4963              1484.4087
 Red. masses --      1.2727                 1.4138                 1.0813
 Frc consts  --      1.4983                 1.7070                 1.4038
 IR Inten    --     28.9284                47.3896                 1.2993

                     28                     29                     30
                      A                      A                      A
 Frequencies --   1492.2083              1506.2151              3064.2708
 Red. masses --      1.0498                 1.0687                 1.0616
 Frc consts  --      1.3773                 1.4286                 5.8732
 IR Inten    --      9.8140                 6.3380                20.3213

                     31                     32                     33
                      A                      A                      A
 Frequencies --   3079.8389              3125.0524              3140.7552
 Red. masses --      1.0344                 1.0909                 1.0999
 Frc consts  --      5.7808                 6.2770                 6.3924
 IR Inten    --      5.4711                 1.2471                 5.6073

                     34                     35                     36
                      A                      A                      A
 Frequencies --   3160.3986              3163.9457              3849.5555
 Red. masses --      1.1032                 1.1020                 1.0684
 Frc consts  --      6.4922                 6.4995                 9.3286
 IR Inten    --      7.4612                 3.9613                72.5809

 - Thermochemistry -
 -------------------
 Temperature   298.150 Kelvin.  Pressure   1.00000 Atm.
 Atom     1 has atomic number  8 and mass  15.99491

 Molecular mass:   107.03443 amu.
 Principal axes and moments of inertia in atomic units:
                           1         2         3
     Eigenvalues --   342.689291163.073381266.61695
           X            0.99957   0.02779  -0.00899
           Y           -0.02794   0.99945  -0.01795
           Z            0.00848   0.01820   0.99980
 This molecule is an asymmetric top.
 Rotational symmetry number  1.
 Rotational temperatures (Kelvin)      0.25275     0.07447     0.06838
 Rotational constants (GHZ):           5.26641     1.55170     1.42485
 Zero-point vibrational energy     287658.3 (Joules/Mol)
                                   68.75198 (Kcal/Mol)
 Warning -- explicit consideration of  10 degrees of freedom as
           vibrations may cause significant error
 Vibrational temperatures:     48.05   177.79   207.77   231.76   314.73
          (Kelvin)            353.51   445.18   533.55   621.93   765.41
                              938.38  1211.89  1327.17  1367.58  1409.70
                             1551.30  1613.06  1667.54  1729.89  1812.24
                             1862.33  1952.09  1997.56  2018.04  2033.77
                             2059.60  2135.73  2146.95  2167.11  4408.80
                             4431.20  4496.25  4518.85  4547.11  4552.21
                             5538.65

 Zero-point correction=                           0.109563 (Hartree/Particle)
 Thermal correction to Energy=                    0.117985
 Thermal correction to Enthalpy=                  0.118929
 Thermal correction to Gibbs Free Energy=         0.075288
 Sum of electronic and zero-point Energies=           -419.061261
 Sum of electronic and thermal Energies=              -419.052840
 Sum of electronic and thermal Enthalpies=            -419.051896
 Sum of electronic and thermal Free Energies=         -419.095537

                     E (Thermal)             CV                S
                      KCal/Mol        Cal/Mol-Kelvin    Cal/Mol-Kelvin
 Total                   74.036             27.915             91.851
 Electronic               0.000              0.000              1.377
 Translational            0.889              2.981             39.921
 Rotational               0.889              2.981             27.714
 Vibrational             72.259             21.954             22.838
 Vibration     1          0.594              1.983              5.617
 Vibration     2          0.610              1.929              3.044
 Vibration     3          0.616              1.909              2.745
 Vibration     4          0.622              1.890              2.537
 Vibration     5          0.647              1.813              1.969
 Vibration     6          0.660              1.770              1.761
 Vibration     7          0.699              1.656              1.365
 Vibration     8          0.743              1.532              1.076
 Vibration     9          0.793              1.400              0.851
 Vibration    10          0.887              1.179              0.583

                           ! Non-Optimized Parameters !
 Normal termination of Gaussian 16 at Wed Apr 10 23:32:30 2019.
