 Gaussian 16, Revision A.03,
 Gaussian 16:  EM64L-G16RevA.03 25-Dec-2016

 ----------------------------------------------
 #p m062x/6-311+g(2df,2p) Opt=(CalcFC,ModRedun)
 ----------------------------------------------

 ----------------------------------------
 Gaussian Input Prepared from Scan Object
 ----------------------------------------
 Symbolic Z-matrix:
 Charge =  0 Multiplicity = 2

 SCF Done:  E(UM062X) =  -419.224437540     A.U. after   21 cycles

  Exact polarizability:   0.000   0.000   0.000   0.000   0.000   0.000
 Approx polarizability:  69.084  11.849  80.196   2.761   4.893  64.642

 Optimization completed.
    -- Stationary point found.
 SCF Done:  E(UM062X) =  -419.213595032     A.U. after   18 cycles
 SCF Done:  E(UM062X) =  -419.220934843     A.U. after   18 cycles
 SCF Done:  E(UM062X) =  -419.222823790     A.U. after   18 cycles
 SCF Done:  E(UM062X) =  -419.222871540     A.U. after   16 cycles
 SCF Done:  E(UM062X) =  -419.222872783     A.U. after   16 cycles
 SCF Done:  E(UM062X) =  -419.222872942     A.U. after   13 cycles
 Optimization completed.
 SCF Done:  E(UM062X) =  -419.209776587     A.U. after   18 cycles
 SCF Done:  E(UM062X) =  -419.217925457     A.U. after   17 cycles
 SCF Done:  E(UM062X) =  -419.221142873     A.U. after   18 cycles
 SCF Done:  E(UM062X) =  -419.222949776     A.U. after   17 cycles
 SCF Done:  E(UM062X) =  -419.222956820     A.U. after   16 cycles
 SCF Done:  E(UM062X) =  -419.222957393     A.U. after   15 cycles
 SCF Done:  E(UM062X) =  -419.222957484     A.U. after   10 cycles
    -- Stationary point found.
 SCF Done:  E(UM062X) =  -419.214563047     A.U. after   18 cycles
 SCF Done:  E(UM062X) =  -419.222494013     A.U. after   18 cycles
 SCF Done:  E(UM062X) =  -419.224395371     A.U. after   18 cycles
 SCF Done:  E(UM062X) =  -419.224435410     A.U. after   17 cycles
 SCF Done:  E(UM062X) =  -419.224437528     A.U. after   15 cycles
 SCF Done:  E(UM062X) =  -419.224437566     A.U. after   15 cycles
 Optimization completed.
    -- Stationary point found.

                         Standard orientation:
 ---------------------------------------------------------------------
 Center     Atomic      Atomic             Coordinates (Angstroms)
 Number     Number       Type             X           Y           Z
 ---------------------------------------------------------------------
      1          8           0        1.545617    1.728511   -0.179244
      2          8           0        0.061117   -1.177985   -0.719249
      3          8           0       -2.445793   -0.018881   -0.553892
      4          8           0       -2.184553    0.202593    0.827261
      5          6           0        0.754524   -0.545824    0.213294
      6          6           0        0.600140    1.023219   -0.154621
      7          6           0        2.208770   -0.933079    0.362264
      8          1           0        0.204108   -0.507920    1.175392
      9          1           0       -2.937567   -0.229444    1.243806
     10          1           0       -0.438471    1.322040   -0.353666
     11          1           0        2.723996   -0.813380   -0.588794
     12          1           0        2.700555   -0.309357    1.106358
     13          1           0        2.272282   -1.975301    0.668879
     14          1           0       -1.716616   -0.626444   -0.776606
 ---------------------------------------------------------------------

 The electronic state is 2-A.
 Alpha  occ. eigenvalues --  -19.69306 -19.68097 -19.67951 -19.66908 -10.67377
 Alpha  occ. eigenvalues --  -10.62441 -10.54000  -1.26662  -1.23894  -1.18119
 Alpha  occ. eigenvalues --   -1.01540  -0.86739  -0.77679  -0.67483  -0.62607
 Alpha  occ. eigenvalues --   -0.61979  -0.60042  -0.58419  -0.56489  -0.52288
 Alpha  occ. eigenvalues --   -0.51281  -0.50582  -0.47359  -0.46916  -0.44941
 Alpha  occ. eigenvalues --   -0.41664  -0.37804  -0.37009  -0.34000
 Alpha virt. eigenvalues --   -0.01588   0.01234   0.02912   0.03624   0.04393
 Alpha virt. eigenvalues --    0.05734   0.06325   0.06745   0.08068   0.08551
 Alpha virt. eigenvalues --    0.09959   0.10915   0.11762   0.13418   0.16556

  Beta  occ. eigenvalues --  -19.69303 -19.67945 -19.67832 -19.65657 -10.67187
  Beta  occ. eigenvalues --  -10.62470 -10.54003  -1.26644  -1.23084  -1.14161
  Beta  occ. eigenvalues --   -1.01529  -0.85634  -0.76303  -0.66393  -0.62481
  Beta  occ. eigenvalues --   -0.60929  -0.58582  -0.56581  -0.55459  -0.52101
  Beta  occ. eigenvalues --   -0.50448  -0.49742  -0.46484  -0.45430  -0.41502
  Beta  occ. eigenvalues --   -0.37777  -0.37050  -0.34748
  Beta virt. eigenvalues --   -0.12191  -0.01132   0.01232   0.02931   0.03620
  Beta virt. eigenvalues --    0.04509   0.05695   0.06338   0.06768   0.08087
  Beta virt. eigenvalues --    0.08754   0.09996   0.10923   0.11724   0.13297

 Mulliken charges and spin densities:
               1          2
     1  O   -0.255407   0.096016
     2  O   -0.245262   0.708113
     3  O   -0.282505   0.008044
     4  O   -0.282501  -0.003628
     5  C   -0.165977   0.001529
     6  C    0.187327   0.105904
     7  C   -0.422949   0.007257
     8  H    0.208557   0.063774
     9  H    0.286041   0.000370
    10  H    0.202931   0.016503
    11  H    0.168027   0.002501
    12  H    0.152024  -0.000700
    13  H    0.144904   0.002113
    14  H    0.304792  -0.007796
 Sum of Mulliken charges =  -0.00000   1.00000

 Dipole moment (field-independent basis, Debye):
    X=             -0.1706    Y=             -1.2646    Z=              2.1118  Tot=              2.4674
 Quadrupole moment (field-independent basis, Debye-Ang):
   XX=            -41.8207   YY=            -45.5428   ZZ=            -40.1238
   XY=             -0.7747   XZ=             -3.1979   YZ=             -2.2269

 Normal termination of Gaussian 16 at Fri Mar 29 19:08:10 2019.
