 Gaussian 16, Revision A.03,
 Gaussian 16:  EM64L-G16RevA.03 25-Dec-2016

 ----------------------------------------------------------------------
 #p m062x/6-311+g(2df,2p) opt=(calcfc,verytight,gdiis,maxcycles=900) fr
 eq iop(7/33=1,2/16=3)
 ----------------------------------------------------------------------

 ------------------------------
 Gaussian input prepared by ASE
 ------------------------------
 Symbolic Z-matrix:
 Charge =  0 Multiplicity = 2

 SCF Done:  E(UM062X) =  -419.155197498     A.U. after   19 cycles
 SCF Done:  E(UM062X) =  -419.167260342     A.U. after   17 cycles
 SCF Done:  E(UM062X) =  -419.165540502     A.U. after   19 cycles
 SCF Done:  E(UM062X) =  -419.167026121     A.U. after   15 cycles
 SCF Done:  E(UM062X) =  -419.168227872     A.U. after   19 cycles
 SCF Done:  E(UM062X) =  -419.168421693     A.U. after   15 cycles
 SCF Done:  E(UM062X) =  -419.168443894     A.U. after   15 cycles
 SCF Done:  E(UM062X) =  -419.168453351     A.U. after   15 cycles
 SCF Done:  E(UM062X) =  -419.168454172     A.U. after   13 cycles
 SCF Done:  E(UM062X) =  -419.168454260     A.U. after   13 cycles
 SCF Done:  E(UM062X) =  -419.168454265     A.U. after   11 cycles
 SCF Done:  E(UM062X) =  -419.168454280     A.U. after    7 cycles
 SCF Done:  E(UM062X) =  -419.168454286     A.U. after    7 cycles
 SCF Done:  E(UM062X) =  -419.168454287     A.U. after   11 cycles
 SCF Done:  E(UM062X) =  -419.168454287     A.U. after    5 cycles
 SCF Done:  E(UM062X) =  -419.168454287     A.U. after    3 cycles
 Optimization completed.
    -- Stationary point found.
 Normal termination of Gaussian 16 at Thu Mar 21 17:23:10 2019.

 ----------------------------------------------------------------------
 #P Geom=AllCheck Guess=TCheck SCRF=Check Test GenChk UM062X/6-311+G(2d
 f,2p) Freq
 ----------------------------------------------------------------------

 Structure from the checkpoint file:  "/scratch/underkoffler.c/gaussian_scratch/Gau-6123.chk"
 ------------------------------
 Gaussian input prepared by ASE
 ------------------------------
 Charge =  0 Multiplicity = 2

                         Standard orientation:
 ---------------------------------------------------------------------
 Center     Atomic      Atomic             Coordinates (Angstroms)
 Number     Number       Type             X           Y           Z
 ---------------------------------------------------------------------
      1          8           0       -1.656809    0.182650   -0.344723
      2          8           0        1.861750   -0.208568    0.302707
      3          8           0       -2.771663   -0.599705    0.045024
      4          8           0        2.116770   -1.388451   -0.168035
      5          6           0        0.674514    0.371038   -0.291246
      6          6           0       -0.520712   -0.380490    0.273445
      7          6           0        0.690467    1.839044    0.060258
      8          1           0        0.742354    0.205415   -1.366176
      9          1           0       -0.567581   -0.254793    1.360241
     10          1           0       -0.444372   -1.440785    0.029885
     11          1           0        1.580295    2.319471   -0.341113
     12          1           0       -0.191355    2.319186   -0.358802
     13          1           0        0.677290    1.968393    1.142457
     14          1           0       -3.262632    0.018144    0.598984
 ---------------------------------------------------------------------

 SCF Done:  E(UM062X) =  -419.168454287     A.U. after    1 cycles

 The electronic state is 2-A.
 Alpha  occ. eigenvalues --  -19.75399 -19.70159 -19.70148 -19.69587 -10.61973
 Alpha  occ. eigenvalues --  -10.60454 -10.54869  -1.35019  -1.28323  -1.05523
 Alpha  occ. eigenvalues --   -1.01265  -0.86750  -0.79945  -0.70880  -0.64585
 Alpha  occ. eigenvalues --   -0.63052  -0.61291  -0.58264  -0.56635  -0.54248
 Alpha  occ. eigenvalues --   -0.53596  -0.48460  -0.48183  -0.44525  -0.43733
 Alpha  occ. eigenvalues --   -0.40383  -0.37525  -0.37122  -0.35876
 Alpha virt. eigenvalues --    0.00962   0.02273   0.03431   0.03911   0.05165
 Alpha virt. eigenvalues --    0.05782   0.06905   0.07309   0.08716   0.09152
 Alpha virt. eigenvalues --    0.11152   0.12126   0.12473   0.14115   0.15313

  Beta  occ. eigenvalues --  -19.74568 -19.70148 -19.69583 -19.68757 -10.61999
  Beta  occ. eigenvalues --  -10.60435 -10.54868  -1.31792  -1.28305  -1.05343
  Beta  occ. eigenvalues --   -0.98146  -0.85191  -0.79803  -0.70158  -0.64308
  Beta  occ. eigenvalues --   -0.61176  -0.58225  -0.57109  -0.55699  -0.53341
  Beta  occ. eigenvalues --   -0.49478  -0.48242  -0.47634  -0.44270  -0.41956
  Beta  occ. eigenvalues --   -0.40125  -0.36491  -0.34777
  Beta virt. eigenvalues --   -0.06545   0.00975   0.02291   0.03485   0.03977
  Beta virt. eigenvalues --    0.05243   0.05837   0.06951   0.07364   0.08802
  Beta virt. eigenvalues --    0.09245   0.11264   0.12212   0.12643   0.14338

 Mulliken charges and spin densities:
               1          2
     1  O   -0.161483  -0.000953
     2  O    0.020075   0.280071
     3  O   -0.236060   0.001013
     4  O   -0.145310   0.707210
     5  C   -0.277649  -0.004648
     6  C   -0.118863   0.008972
     7  C   -0.421426   0.002874
     8  H    0.210397   0.006939
     9  H    0.165536  -0.000159
    10  H    0.193152  -0.000395
    11  H    0.160209  -0.000288
    12  H    0.168354  -0.000539
    13  H    0.166480  -0.000300
    14  H    0.276587   0.000203
 Sum of Mulliken charges =  -0.00000   1.00000

 Dipole moment (field-independent basis, Debye):
    X=             -1.5864    Y=              2.4922    Z=              1.1012  Tot=              3.1529
 Quadrupole moment (field-independent basis, Debye-Ang):
   XX=            -44.6155   YY=            -42.5226   ZZ=            -40.5989
   XY=              1.1834   XZ=             -5.4870   YZ=             -0.1192

  Exact polarizability:  65.758  -2.169  59.864  -2.224   1.208  46.412
 Approx polarizability:  67.458  -2.331  68.008  -1.890   1.950  58.100

                      1                      2                      3
                      A                      A                      A
 Frequencies --     85.2257                90.3139               115.9648
 Red. masses --      6.2369                 2.5999                 5.9845
 Frc consts  --      0.0267                 0.0125                 0.0474
 IR Inten    --      2.0562                13.2437                 3.8982

                      4                      5                      6
                      A                      A                      A
 Frequencies --    186.2071               191.7582               226.9447
 Red. masses --      1.2421                 2.5304                 1.3479
 Frc consts  --      0.0254                 0.0548                 0.0409
 IR Inten    --     96.3453                16.6413                 4.8213

                      7                      8                      9
                      A                      A                      A
 Frequencies --    283.9816               360.2940               445.7172
 Red. masses --      3.8058                 3.1422                 4.5607
 Frc consts  --      0.1808                 0.2403                 0.5338
 IR Inten    --      0.3724                 2.1994                 1.6698

                     10                     11                     12
                      A                      A                      A
 Frequencies --    506.1806               565.7367               874.3231
 Red. masses --      3.3931                 4.7183                 2.1443
 Frc consts  --      0.5122                 0.8897                 0.9658
 IR Inten    --      8.6648                 9.0244                 3.0780

                     13                     14                     15
                      A                      A                      A
 Frequencies --    943.5757               949.3590              1027.3173
 Red. masses --      1.9030                 1.3279                 8.4009
 Frc consts  --      0.9982                 0.7052                 5.2238
 IR Inten    --      2.7184                 1.0695                27.2130

                     16                     17                     18
                      A                      A                      A
 Frequencies --   1117.2796              1147.0440              1176.7581
 Red. masses --      3.3971                 4.9043                 1.8813
 Frc consts  --      2.4985                 3.8018                 1.5349
 IR Inten    --     27.6719                 7.4372                 7.8423

                     19                     20                     21
                      A                      A                      A
 Frequencies --   1189.8119              1254.9916              1300.6610
 Red. masses --      1.8947                 1.2094                11.8237
 Frc consts  --      1.5803                 1.1223                11.7851
 IR Inten    --      3.2246                 1.3684                22.6235

                     22                     23                     24
                      A                      A                      A
 Frequencies --   1330.5493              1375.4509              1413.2994
 Red. masses --      1.1997                 1.3337                 1.4448
 Frc consts  --      1.2514                 1.4866                 1.7003
 IR Inten    --      8.7662                 3.3583                12.0217

                     25                     26                     27
                      A                      A                      A
 Frequencies --   1422.5928              1425.8091              1494.7038
 Red. masses --      1.2758                 1.3121                 1.0471
 Frc consts  --      1.5212                 1.5716                 1.3783
 IR Inten    --     47.2345                13.5146                 6.0513

                     28                     29                     30
                      A                      A                      A
 Frequencies --   1500.9829              1532.5322              3041.2768
 Red. masses --      1.0624                 1.0863                 1.0621
 Frc consts  --      1.4102                 1.5032                 5.7882
 IR Inten    --      6.2706                11.0285                23.0143

                     31                     32                     33
                      A                      A                      A
 Frequencies --   3077.0926              3108.9755              3121.1582
 Red. masses --      1.0363                 1.0880                 1.0998
 Frc consts  --      5.7810                 6.1963                 6.3121
 IR Inten    --      6.1577                 2.6280                 9.5206

                     34                     35                     36
                      A                      A                      A
 Frequencies --   3154.0114              3165.7615              3843.6051
 Red. masses --      1.1016                 1.1030                 1.0685
 Frc consts  --      6.4564                 6.5129                 9.3000
 IR Inten    --     12.0553                 4.8733                58.9274

 - Thermochemistry -
 -------------------
 Temperature   298.150 Kelvin.  Pressure   1.00000 Atm.
 Atom     1 has atomic number  8 and mass  15.99491

 Molecular mass:   107.03443 amu.
 Principal axes and moments of inertia in atomic units:
                           1         2         3
     Eigenvalues --   392.116361195.315771505.78634
           X            0.99966   0.02361  -0.01103
           Y           -0.02362   0.99972  -0.00048
           Z            0.01101   0.00074   0.99994
 This molecule is an asymmetric top.
 Rotational symmetry number  1.
 Rotational temperatures (Kelvin)      0.22089     0.07246     0.05752
 Rotational constants (GHZ):           4.60257     1.50984     1.19854
 Zero-point vibrational energy     287386.4 (Joules/Mol)
                                   68.68699 (Kcal/Mol)
 Warning -- explicit consideration of  11 degrees of freedom as
           vibrations may cause significant error
 Vibrational temperatures:    122.62   129.94   166.85   267.91   275.90
          (Kelvin)            326.52   408.59   518.38   641.29   728.28
                              813.97  1257.96  1357.60  1365.92  1478.08
                             1607.52  1650.34  1693.09  1711.87  1805.65
                             1871.36  1914.36  1978.97  2033.42  2046.79
                             2051.42  2150.55  2159.58  2204.97  4375.72
                             4427.25  4473.12  4490.65  4537.92  4554.82
                             5530.09

 Zero-point correction=                           0.109460 (Hartree/Particle)
 Thermal correction to Energy=                    0.117987
 Thermal correction to Enthalpy=                  0.118932
 Thermal correction to Gibbs Free Energy=         0.075333
 Sum of electronic and zero-point Energies=           -419.058995
 Sum of electronic and thermal Energies=              -419.050467
 Sum of electronic and thermal Enthalpies=            -419.049523
 Sum of electronic and thermal Free Energies=         -419.093122

                     E (Thermal)             CV                S
                      KCal/Mol        Cal/Mol-Kelvin    Cal/Mol-Kelvin
 Total                   74.038             28.079             91.762
 Electronic               0.000              0.000              1.377
 Translational            0.889              2.981             39.921
 Rotational               0.889              2.981             28.047
 Vibrational             72.261             22.117             22.416
 Vibration     1          0.601              1.959              3.767
 Vibration     2          0.602              1.956              3.653
 Vibration     3          0.608              1.936              3.167
 Vibration     4          0.632              1.859              2.265
 Vibration     5          0.634              1.851              2.211
 Vibration     6          0.651              1.800              1.903
 Vibration     7          0.682              1.703              1.510
 Vibration     8          0.735              1.554              1.121
 Vibration     9          0.805              1.370              0.809
 Vibration    10          0.861              1.236              0.643
 Vibration    11          0.922              1.105              0.513

                           ! Non-Optimized Parameters !
 Normal termination of Gaussian 16 at Thu Mar 21 17:30:25 2019.
