 Gaussian 16, Revision A.03,
 Gaussian 16:  EM64L-G16RevA.03 25-Dec-2016

 ----------------------------------------------------------------------
 #p m062x/6-311+g(2df,2p) opt=(calcfc,verytight,gdiis,maxcycles=900) fr
 eq iop(7/33=1,2/16=3)
 ----------------------------------------------------------------------

 ------------------------------
 Gaussian input prepared by ASE
 ------------------------------
 Symbolic Z-matrix:
 Charge =  0 Multiplicity = 2

 SCF Done:  E(UM062X) =  -419.224419242     A.U. after   21 cycles
 SCF Done:  E(UM062X) =  -419.224437503     A.U. after   16 cycles
 SCF Done:  E(UM062X) =  -419.224437538     A.U. after   13 cycles
 SCF Done:  E(UM062X) =  -419.224437540     A.U. after    6 cycles
 SCF Done:  E(UM062X) =  -419.224437540     A.U. after    3 cycles
 SCF Done:  E(UM062X) =  -419.224437541     A.U. after    4 cycles
 SCF Done:  E(UM062X) =  -419.224437540     A.U. after    2 cycles
 Optimization completed.
    -- Stationary point found.
 Normal termination of Gaussian 16 at Sun Mar 24 12:01:01 2019.

 ----------------------------------------------------------------------
 #P Geom=AllCheck Guess=TCheck SCRF=Check Test GenChk UM062X/6-311+G(2d
 f,2p) Freq
 ----------------------------------------------------------------------

 Structure from the checkpoint file:  "/scratch/underkoffler.c/gaussian_scratch/Gau-47940.chk"
 ------------------------------
 Gaussian input prepared by ASE
 ------------------------------
 Charge =  0 Multiplicity = 2

                         Standard orientation:
 ---------------------------------------------------------------------
 Center     Atomic      Atomic             Coordinates (Angstroms)
 Number     Number       Type             X           Y           Z
 ---------------------------------------------------------------------
      1          8           0        1.545560    1.728514   -0.179373
      2          8           0        0.061206   -1.177515   -0.719500
      3          8           0       -2.445693   -0.018700   -0.554066
      4          8           0       -2.184768    0.202154    0.827222
      5          6           0        0.754578   -0.545941    0.213474
      6          6           0        0.600090    1.023285   -0.153882
      7          6           0        2.208857   -0.933166    0.362061
      8          1           0        0.204213   -0.508597    1.175602
      9          1           0       -2.937832   -0.230138    1.243420
     10          1           0       -0.438643    1.322356   -0.351905
     11          1           0        2.723984   -0.812885   -0.588981
     12          1           0        2.700586   -0.309776    1.106462
     13          1           0        2.272531   -1.975546    0.668108
     14          1           0       -1.716425   -0.626114   -0.776893
 ---------------------------------------------------------------------

 SCF Done:  E(UM062X) =  -419.224437540     A.U. after    1 cycles

 The electronic state is 2-A.
 Alpha  occ. eigenvalues --  -19.69305 -19.68098 -19.67950 -19.66907 -10.67377
 Alpha  occ. eigenvalues --  -10.62442 -10.54000  -1.26662  -1.23896  -1.18119
 Alpha  occ. eigenvalues --   -1.01539  -0.86739  -0.77678  -0.67483  -0.62607
 Alpha  occ. eigenvalues --   -0.61980  -0.60042  -0.58419  -0.56488  -0.52288
 Alpha  occ. eigenvalues --   -0.51281  -0.50583  -0.47359  -0.46917  -0.44941
 Alpha  occ. eigenvalues --   -0.41663  -0.37803  -0.37008  -0.34000
 Alpha virt. eigenvalues --   -0.01588   0.01233   0.02912   0.03624   0.04394
 Alpha virt. eigenvalues --    0.05734   0.06324   0.06745   0.08068   0.08551
 Alpha virt. eigenvalues --    0.09958   0.10916   0.11761   0.13418   0.16555

  Beta  occ. eigenvalues --  -19.69302 -19.67943 -19.67833 -19.65657 -10.67188
  Beta  occ. eigenvalues --  -10.62470 -10.54004  -1.26644  -1.23086  -1.14161
  Beta  occ. eigenvalues --   -1.01528  -0.85635  -0.76302  -0.66393  -0.62481
  Beta  occ. eigenvalues --   -0.60929  -0.58583  -0.56581  -0.55459  -0.52100
  Beta  occ. eigenvalues --   -0.50451  -0.49742  -0.46486  -0.45430  -0.41501
  Beta  occ. eigenvalues --   -0.37775  -0.37049  -0.34749
  Beta virt. eigenvalues --   -0.12191  -0.01131   0.01231   0.02931   0.03620
  Beta virt. eigenvalues --    0.04510   0.05695   0.06338   0.06768   0.08087
  Beta virt. eigenvalues --    0.08754   0.09995   0.10924   0.11724   0.13297

 Mulliken charges and spin densities:
               1          2
     1  O   -0.255387   0.096080
     2  O   -0.245294   0.708050
     3  O   -0.282545   0.008046
     4  O   -0.282541  -0.003626
     5  C   -0.165845   0.001544
     6  C    0.187344   0.105916
     7  C   -0.423033   0.007272
     8  H    0.208507   0.063720
     9  H    0.286048   0.000370
    10  H    0.202956   0.016511
    11  H    0.168027   0.002498
    12  H    0.152018  -0.000700
    13  H    0.144906   0.002114
    14  H    0.304839  -0.007796
 Sum of Mulliken charges =  -0.00000   1.00000

 Dipole moment (field-independent basis, Debye):
    X=             -0.1702    Y=             -1.2653    Z=              2.1133  Tot=              2.4690
 Quadrupole moment (field-independent basis, Debye-Ang):
   XX=            -41.8194   YY=            -45.5378   ZZ=            -40.1278
   XY=             -0.7725   XZ=             -3.1955   YZ=             -2.2253

  Exact polarizability:  65.356   6.908  69.368   2.218   2.580  50.842
 Approx polarizability:  69.084  11.849  80.196   2.761   4.893  64.642

                      1                      2                      3
                      A                      A                      A
 Frequencies --     69.8981                92.8378                99.0137
 Red. masses --      5.9576                 4.0840                 7.2893
 Frc consts  --      0.0171                 0.0207                 0.0421
 IR Inten    --      0.9946                 0.0178                14.1091

                      4                      5                      6
                      A                      A                      A
 Frequencies --    133.7538               152.0009               189.2565
 Red. masses --      3.5304                 5.5318                 1.9356
 Frc consts  --      0.0372                 0.0753                 0.0408
 IR Inten    --     15.2026                 3.1931                15.1916

                      7                      8                      9
                      A                      A                      A
 Frequencies --    199.0366               243.9699               269.3545
 Red. masses --      1.8499                 1.1531                 3.1984
 Frc consts  --      0.0432                 0.0404                 0.1367
 IR Inten    --      6.8520               124.5349                 2.6250

                     10                     11                     12
                      A                      A                      A
 Frequencies --    375.8312               472.2040               505.5165
 Red. masses --      3.3795                 3.2321                 5.4808
 Frc consts  --      0.2812                 0.4246                 0.8252
 IR Inten    --      5.6222                28.0098                82.5855

                     13                     14                     15
                      A                      A                      A
 Frequencies --    658.0709               676.2912               866.9688
 Red. masses --      4.4302                 1.0714                 1.8339
 Frc consts  --      1.1304                 0.2887                 0.8122
 IR Inten    --    181.6924               212.9169                78.3389

                     16                     17                     18
                      A                      A                      A
 Frequencies --    919.0354              1004.7532              1042.4744
 Red. masses --      1.3899                 1.5654                13.7050
 Frc consts  --      0.6917                 0.9311                 8.7753
 IR Inten    --      1.3175                 9.0309                 0.8199

                     19                     20                     21
                      A                      A                      A
 Frequencies --   1058.1317              1142.1727              1241.0584
 Red. masses --      1.5207                 1.9426                 1.4412
 Frc consts  --      1.0032                 1.4931                 1.3079
 IR Inten    --     49.6249                 8.2038                14.3975

                     22                     23                     24
                      A                      A                      A
 Frequencies --   1347.4458              1372.6652              1382.5623
 Red. masses --      1.1940                 1.8269                 1.1220
 Frc consts  --      1.2772                 2.0282                 1.2636
 IR Inten    --     17.1726                23.4955                81.4340

                     25                     26                     27
                      A                      A                      A
 Frequencies --   1414.0882              1484.8992              1491.3315
 Red. masses --      1.3889                 1.0459                 1.0514
 Frc consts  --      1.6364                 1.3588                 1.3778
 IR Inten    --     22.7852                 7.8426                11.3984

                     28                     29                     30
                      A                      A                      A
 Frequencies --   1537.8990              1892.6691              2900.3669
 Red. masses --      1.0856                 9.8127                 1.0735
 Frc consts  --      1.5128                20.7104                 5.3206
 IR Inten    --     38.0150               414.0475                 3.5250

                     31                     32                     33
                      A                      A                      A
 Frequencies --   3051.5460              3081.5273              3161.7524
 Red. masses --      1.0968                 1.0343                 1.1036
 Frc consts  --      6.0173                 5.7867                 6.5001
 IR Inten    --      1.8629                 5.3285                 4.3163

                     34                     35                     36
                      A                      A                      A
 Frequencies --   3163.8770              3630.7882              3857.1651
 Red. masses --      1.1033                 1.0688                 1.0685
 Frc consts  --      6.5070                 8.3015                 9.3658
 IR Inten    --      5.4027               447.9073                59.4224

 - Thermochemistry -
 -------------------
 Temperature   298.150 Kelvin.  Pressure   1.00000 Atm.
 Atom     1 has atomic number  8 and mass  15.99491

 Molecular mass:   107.03443 amu.
 Principal axes and moments of inertia in atomic units:
                           1         2         3
     Eigenvalues --   488.535441230.980931486.33373
           X            0.99951  -0.03108   0.00437
           Y            0.03120   0.99907  -0.02967
           Z           -0.00345   0.02980   0.99955
 This molecule is an asymmetric top.
 Rotational symmetry number  1.
 Warning -- assumption of classical behavior for rotation
           may cause significant error
 Rotational temperatures (Kelvin)      0.17729     0.07036     0.05827
 Rotational constants (GHZ):           3.69419     1.46610     1.21422
 Zero-point vibrational energy     276231.0 (Joules/Mol)
                                   66.02079 (Kcal/Mol)
 Warning -- explicit consideration of  12 degrees of freedom as
           vibrations may cause significant error
 Vibrational temperatures:    100.57   133.57   142.46   192.44   218.70
          (Kelvin)            272.30   286.37   351.02   387.54   540.74
                              679.40   727.33   946.82   973.03  1247.37
                             1322.29  1445.62  1499.89  1522.42  1643.33
                             1785.61  1938.67  1974.96  1989.20  2034.56
                             2136.44  2145.69  2212.69  2723.13  4172.98
                             4390.49  4433.63  4549.06  4552.11  5223.89
                             5549.60

 Zero-point correction=                           0.105211 (Hartree/Particle)
 Thermal correction to Energy=                    0.115073
 Thermal correction to Enthalpy=                  0.116017
 Thermal correction to Gibbs Free Energy=         0.069472
 Sum of electronic and zero-point Energies=           -419.119227
 Sum of electronic and thermal Energies=              -419.109365
 Sum of electronic and thermal Enthalpies=            -419.108420
 Sum of electronic and thermal Free Energies=         -419.154965

                     E (Thermal)             CV                S
                      KCal/Mol        Cal/Mol-Kelvin    Cal/Mol-Kelvin
 Total                   72.209             31.876             97.962
 Electronic               0.000              0.000              1.377
 Translational            0.889              2.981             39.921
 Rotational               0.889              2.981             28.282
 Vibrational             70.432             25.914             28.382
 Vibration     1          0.598              1.968              4.156
 Vibration     2          0.602              1.954              3.599
 Vibration     3          0.604              1.950              3.474
 Vibration     4          0.613              1.920              2.891
 Vibration     5          0.619              1.900              2.647
 Vibration     6          0.633              1.855              2.235
 Vibration     7          0.637              1.841              2.142
 Vibration     8          0.659              1.773              1.774
 Vibration     9          0.674              1.730              1.600
 Vibration    10          0.747              1.522              1.056
 Vibration    11          0.829              1.312              0.731
 Vibration    12          0.861              1.238              0.644

                           ! Non-Optimized Parameters !
 Normal termination of Gaussian 16 at Sun Mar 24 12:08:18 2019.
