 Gaussian 16, Revision A.03,
 Gaussian 16:  EM64L-G16RevA.03 25-Dec-2016

 ----------------------------------------------------------------------
 #p m062x/6-311+g(2df,2p) opt=(calcfc,verytight,gdiis,maxcycles=900) fr
 eq iop(7/33=1,2/16=3)
 ----------------------------------------------------------------------

 ------------------------------
 Gaussian input prepared by ASE
 ------------------------------
 Symbolic Z-matrix:
 Charge =  0 Multiplicity = 2

 SCF Done:  E(UM062X) =  -232.934484398     A.U. after   19 cycles
 SCF Done:  E(UM062X) =  -232.945375780     A.U. after   21 cycles
 SCF Done:  E(UM062X) =  -232.949244982     A.U. after   20 cycles
 SCF Done:  E(UM062X) =  -232.951823365     A.U. after   19 cycles
 SCF Done:  E(UM062X) =  -232.952301510     A.U. after   16 cycles
 SCF Done:  E(UM062X) =  -232.952544602     A.U. after   15 cycles
 SCF Done:  E(UM062X) =  -232.953877595     A.U. after   17 cycles
 SCF Done:  E(UM062X) =  -232.954566311     A.U. after   16 cycles
 SCF Done:  E(UM062X) =  -232.956868546     A.U. after   17 cycles
 SCF Done:  E(UM062X) =  -232.957754516     A.U. after   16 cycles
 SCF Done:  E(UM062X) =  -232.958336435     A.U. after   15 cycles
 SCF Done:  E(UM062X) =  -232.958354123     A.U. after   16 cycles
 SCF Done:  E(UM062X) =  -232.958380146     A.U. after   16 cycles
 SCF Done:  E(UM062X) =  -232.958383195     A.U. after   14 cycles
 SCF Done:  E(UM062X) =  -232.958383295     A.U. after   14 cycles
 SCF Done:  E(UM062X) =  -232.958383299     A.U. after    7 cycles
 SCF Done:  E(UM062X) =  -232.958383299     A.U. after    3 cycles
 SCF Done:  E(UM062X) =  -232.958383299     A.U. after    2 cycles
 SCF Done:  E(UM062X) =  -232.958383299     A.U. after    2 cycles
 Optimization completed.
    -- Stationary point found.
 Normal termination of Gaussian 16 at Tue Apr  9 00:48:50 2019.

 ----------------------------------------------------------------------
 #P Geom=AllCheck Guess=TCheck SCRF=Check Test GenChk UM062X/6-311+G(2d
 f,2p) Freq
 ----------------------------------------------------------------------

 Structure from the checkpoint file:  "/scratch/underkoffler.c/gaussian_scratch/Gau-43749.chk"
 ------------------------------
 Gaussian input prepared by ASE
 ------------------------------
 Charge =  0 Multiplicity = 2

                         Standard orientation:
 ---------------------------------------------------------------------
 Center     Atomic      Atomic             Coordinates (Angstroms)
 Number     Number       Type             X           Y           Z
 ---------------------------------------------------------------------
      1          8           0        1.434367   -1.029393   -0.141465
      2          6           0       -1.206450    0.594672    0.195131
      3          6           0        0.152813    1.026990   -0.350998
      4          6           0       -1.507286   -0.882565   -0.032376
      5          6           0        1.306419    0.261874    0.293667
      6          1           0       -1.246584    0.817359    1.264897
      7          1           0       -1.982048    1.202936   -0.274018
      8          1           0        0.197419    0.862983   -1.429889
      9          1           0        0.300203    2.093958   -0.171957
     10          1           0       -0.793023   -1.521116    0.490485
     11          1           0       -1.449732   -1.132802   -1.092091
     12          1           0       -2.504064   -1.138032    0.325420
     13          1           0        1.266517    0.317223    1.391044
     14          1           0        2.263397    0.726814   -0.004722
 ---------------------------------------------------------------------

 SCF Done:  E(UM062X) =  -232.958383299     A.U. after    1 cycles

 The electronic state is 2-A.
 Alpha  occ. eigenvalues --  -19.66390 -10.59131 -10.53911 -10.53525 -10.52060
 Alpha  occ. eigenvalues --   -1.15562  -0.89918  -0.81373  -0.72365  -0.66266
 Alpha  occ. eigenvalues --   -0.58400  -0.55017  -0.52278  -0.49358  -0.48291
 Alpha  occ. eigenvalues --   -0.45613  -0.43784  -0.40733  -0.39717  -0.37182
 Alpha  occ. eigenvalues --   -0.35706
 Alpha virt. eigenvalues --    0.01316   0.02813   0.03296   0.03630   0.06196
 Alpha virt. eigenvalues --    0.06565   0.06731   0.07275   0.07742   0.10410
 Alpha virt. eigenvalues --    0.10785   0.11242   0.11542   0.11990   0.14743

  Beta  occ. eigenvalues --  -19.64887 -10.59176 -10.53883 -10.53523 -10.52044
  Beta  occ. eigenvalues --   -1.09602  -0.89509  -0.80657  -0.71330  -0.65768
  Beta  occ. eigenvalues --   -0.55118  -0.53795  -0.51590  -0.47655  -0.46095
  Beta  occ. eigenvalues --   -0.45153  -0.41059  -0.39782  -0.39525  -0.33617
  Beta virt. eigenvalues --   -0.07616   0.01366   0.02830   0.03338   0.03717
  Beta virt. eigenvalues --    0.06295   0.06669   0.06755   0.07336   0.07836
  Beta virt. eigenvalues --    0.10457   0.10838   0.11296   0.11573   0.12130

 Mulliken charges and spin densities:
               1          2
     1  O   -0.154586   0.884744
     2  C   -0.250451  -0.002930
     3  C   -0.276844   0.017824
     4  C   -0.473151   0.017525
     5  C   -0.247325  -0.031293
     6  H    0.166667   0.001003
     7  H    0.149007   0.003478
     8  H    0.183952   0.000458
     9  H    0.148067  -0.001605
    10  H    0.148253  -0.003770
    11  H    0.155978   0.000737
    12  H    0.138543   0.003664
    13  H    0.147009   0.019131
    14  H    0.164882   0.091034
 Sum of Mulliken charges =  -0.00000   1.00000

 Dipole moment (field-independent basis, Debye):
    X=             -0.4073    Y=              1.9822    Z=              0.4196  Tot=              2.0667
 Quadrupole moment (field-independent basis, Debye-Ang):
   XX=            -32.2600   YY=            -34.6599   ZZ=            -32.5319
   XY=              3.2069   XZ=              0.5147   YZ=             -0.4161

  Exact polarizability:  58.002   0.580  55.198   0.635   0.595  48.293
 Approx polarizability:  60.729  -0.243  63.612  -0.189   1.608  59.243

                      1                      2                      3
                      A                      A                      A
 Frequencies --    107.0287               150.0865               252.7156
 Red. masses --      1.9424                 3.4624                 1.2467
 Frc consts  --      0.0131                 0.0460                 0.0469
 IR Inten    --      2.5770                 3.0526                 0.3338

                      4                      5                      6
                      A                      A                      A
 Frequencies --    320.7353               367.6974               478.1369
 Red. masses --      1.8298                 2.5965                 1.8363
 Frc consts  --      0.1109                 0.2068                 0.2473
 IR Inten    --      0.7097                 2.1022                 0.6575

                      7                      8                      9
                      A                      A                      A
 Frequencies --    773.9381               804.9450               862.9380
 Red. masses --      1.1925                 2.1999                 1.5564
 Frc consts  --      0.4209                 0.8398                 0.6829
 IR Inten    --      0.6218                 7.6321                 1.1533

                     10                     11                     12
                      A                      A                      A
 Frequencies --    912.8749               949.0825              1051.1038
 Red. masses --      1.6884                 2.1911                 2.1104
 Frc consts  --      0.8290                 1.1629                 1.3738
 IR Inten    --      1.1893                 2.2310                 7.0814

                     13                     14                     15
                      A                      A                      A
 Frequencies --   1073.1891              1096.5153              1122.5058
 Red. masses --      1.3829                 1.8013                 1.9288
 Frc consts  --      0.9384                 1.2760                 1.4319
 IR Inten    --      2.8436                 1.2993                15.5304

                     16                     17                     18
                      A                      A                      A
 Frequencies --   1175.1527              1240.5276              1299.3129
 Red. masses --      1.5295                 1.4043                 1.2104
 Frc consts  --      1.2444                 1.2732                 1.2039
 IR Inten    --      4.8687                 1.7804                 2.3414

                     19                     20                     21
                      A                      A                      A
 Frequencies --   1340.4841              1369.6642              1379.8155
 Red. masses --      1.2737                 1.3719                 1.4100
 Frc consts  --      1.3485                 1.5163                 1.5816
 IR Inten    --     16.9859                 2.0480                 1.1201

                     22                     23                     24
                      A                      A                      A
 Frequencies --   1414.2320              1423.6537              1476.0837
 Red. masses --      1.1456                 1.2685                 1.0917
 Frc consts  --      1.3500                 1.5148                 1.4015
 IR Inten    --      9.5936                 5.4558                 3.2936

                     25                     26                     27
                      A                      A                      A
 Frequencies --   1490.2086              1504.9604              1509.8929
 Red. masses --      1.0522                 1.0692                 1.0533
 Frc consts  --      1.3767                 1.4268                 1.4148
 IR Inten    --      2.0913                 6.8644                10.2411

                     28                     29                     30
                      A                      A                      A
 Frequencies --   2939.2265              2999.5296              3050.3880
 Red. masses --      1.0606                 1.0895                 1.0628
 Frc consts  --      5.3983                 5.7755                 5.8265
 IR Inten    --      8.3667                31.9962                17.5287

                     31                     32                     33
                      A                      A                      A
 Frequencies --   3057.4905              3060.9286              3087.9731
 Red. masses --      1.0412                 1.0577                 1.0975
 Frc consts  --      5.7345                 5.8386                 6.1660
 IR Inten    --     23.4817                11.7281                15.9854

                     34                     35                     36
                      A                      A                      A
 Frequencies --   3108.0392              3124.1235              3136.1987
 Red. masses --      1.1046                 1.1012                 1.1024
 Frc consts  --      6.2868                 6.3325                 6.3888
 IR Inten    --     21.1216                41.0884                24.6069

 - Thermochemistry -
 -------------------
 Temperature   298.150 Kelvin.  Pressure   1.00000 Atm.
 Atom     1 has atomic number  8 and mass  15.99491

 Molecular mass:    73.06534 amu.
 Principal axes and moments of inertia in atomic units:
                           1         2         3
     Eigenvalues --   239.26487 466.61248 630.36480
           X            0.99690   0.07846   0.00641
           Y           -0.07842   0.99690  -0.00608
           Z           -0.00686   0.00556   0.99996
 This molecule is an asymmetric top.
 Rotational symmetry number  1.
 Rotational temperatures (Kelvin)      0.36200     0.18562     0.13740
 Rotational constants (GHZ):           7.54286     3.86775     2.86301
 Zero-point vibrational energy     326050.5 (Joules/Mol)
                                   77.92793 (Kcal/Mol)
 Warning -- explicit consideration of   6 degrees of freedom as
           vibrations may cause significant error
 Vibrational temperatures:    153.99   215.94   363.60   461.47   529.03
          (Kelvin)            687.93  1113.52  1158.14  1241.58  1313.42
                             1365.52  1512.30  1544.08  1577.64  1615.04
                             1690.78  1784.84  1869.42  1928.66  1970.64
                             1985.25  2034.76  2048.32  2123.76  2144.08
                             2165.30  2172.40  4228.89  4315.65  4388.83
                             4399.05  4403.99  4442.90  4471.78  4494.92
                             4512.29

 Zero-point correction=                           0.124186 (Hartree/Particle)
 Thermal correction to Energy=                    0.130375
 Thermal correction to Enthalpy=                  0.131319
 Thermal correction to Gibbs Free Energy=         0.094215
 Sum of electronic and zero-point Energies=           -232.834197
 Sum of electronic and thermal Energies=              -232.828008
 Sum of electronic and thermal Enthalpies=            -232.827064
 Sum of electronic and thermal Free Energies=         -232.864169

                     E (Thermal)             CV                S
                      KCal/Mol        Cal/Mol-Kelvin    Cal/Mol-Kelvin
 Total                   81.811             21.433             78.093
 Electronic               0.000              0.000              1.377
 Translational            0.889              2.981             38.783
 Rotational               0.889              2.981             25.757
 Vibrational             80.034             15.472             12.176
 Vibration     1          0.606              1.944              3.322
 Vibration     2          0.618              1.903              2.671
 Vibration     3          0.664              1.758              1.712
 Vibration     4          0.706              1.634              1.306
 Vibration     5          0.740              1.539              1.089
 Vibration     6          0.835              1.299              0.715

 Optimization completed.
    -- Stationary point found.
 Normal termination of Gaussian 16 at Tue Apr  9 00:54:20 2019.
