 Gaussian 16, Revision A.03,
 Gaussian 16:  EM64L-G16RevA.03 25-Dec-2016

 ----------------------------------------------
 #p m062x/6-311+g(2df,2p) Opt=(CalcFC,ModRedun)
 ----------------------------------------------

 ----------------------------------------
 Gaussian Input Prepared from Scan Object
 ----------------------------------------
 Symbolic Z-matrix:
 Charge =  0 Multiplicity = 2

 SCF Done:  E(UM062X) =  -419.170824685     A.U. after   18 cycles

  Exact polarizability:   0.000   0.000   0.000   0.000   0.000   0.000
 Approx polarizability:  68.566  -3.463  58.176  -8.496   2.211  66.901

 Optimization completed.
    -- Stationary point found.
 SCF Done:  E(UM062X) =  -419.170063159     A.U. after   15 cycles
 SCF Done:  E(UM062X) =  -419.170532319     A.U. after   14 cycles
 SCF Done:  E(UM062X) =  -419.170533903     A.U. after   13 cycles
 Optimization completed.
 SCF Done:  E(UM062X) =  -419.169258201     A.U. after   15 cycles
 SCF Done:  E(UM062X) =  -419.169795939     A.U. after   16 cycles
 SCF Done:  E(UM062X) =  -419.169800480     A.U. after   13 cycles
 SCF Done:  E(UM062X) =  -419.168294591     A.U. after   15 cycles
 SCF Done:  E(UM062X) =  -419.168913259     A.U. after   16 cycles
 SCF Done:  E(UM062X) =  -419.168919682     A.U. after   13 cycles
 SCF Done:  E(UM062X) =  -419.168907481     A.U. after   16 cycles
 SCF Done:  E(UM062X) =  -419.168909732     A.U. after   13 cycles
 SCF Done:  E(UM062X) =  -419.169183416     A.U. after   15 cycles
 SCF Done:  E(UM062X) =  -419.169803928     A.U. after   16 cycles
 SCF Done:  E(UM062X) =  -419.169805051     A.U. after   12 cycles
 SCF Done:  E(UM062X) =  -419.169998182     A.U. after   15 cycles
 SCF Done:  E(UM062X) =  -419.170536894     A.U. after   15 cycles
 SCF Done:  E(UM062X) =  -419.170538248     A.U. after    9 cycles
    -- Stationary point found.
 SCF Done:  E(UM062X) =  -419.170352000     A.U. after   15 cycles
 SCF Done:  E(UM062X) =  -419.170824340     A.U. after   14 cycles
 Optimization completed.
    -- Stationary point found.

                         Standard orientation:
 ---------------------------------------------------------------------
 Center     Atomic      Atomic             Coordinates (Angstroms)
 Number     Number       Type             X           Y           Z
 ---------------------------------------------------------------------
      1          8           0       -1.732791   -0.154289   -0.675709
      2          8           0        1.645120   -0.404276    0.712439
      3          8           0       -2.409082   -0.025760    0.568809
      4          8           0        2.316884   -0.660196   -0.366456
      5          6           0        0.385556    0.258040    0.427834
      6          6           0       -0.461616   -0.696577   -0.406440
      7          6           0        0.611783    1.595989   -0.235674
      8          1           0       -0.055242    0.373694    1.416316
      9          1           0       -0.550064   -1.664142    0.093813
     10          1           0       -0.007308   -0.833118   -1.387987
     11          1           0        1.108403    1.460897   -1.195118
     12          1           0       -0.351200    2.075518   -0.401195
     13          1           0        1.223443    2.237644    0.395638
     14          1           0       -3.143423   -0.639037    0.451559
 ---------------------------------------------------------------------

 The electronic state is 2-A.
 Alpha  occ. eigenvalues --  -19.75025 -19.70429 -19.69800 -19.69766 -10.61145
 Alpha  occ. eigenvalues --  -10.60531 -10.53865  -1.34606  -1.28424  -1.05426
 Alpha  occ. eigenvalues --   -1.00717  -0.87031  -0.79554  -0.70108  -0.64187
 Alpha  occ. eigenvalues --   -0.62038  -0.60569  -0.59529  -0.56846  -0.55355
 Alpha  occ. eigenvalues --   -0.51456  -0.48495  -0.46642  -0.45368  -0.43019
 Alpha  occ. eigenvalues --   -0.40690  -0.37824  -0.36802  -0.35133
 Alpha virt. eigenvalues --    0.01217   0.02510   0.02882   0.04198   0.05659
 Alpha virt. eigenvalues --    0.06031   0.06745   0.07072   0.08682   0.09587
 Alpha virt. eigenvalues --    0.10881   0.11843   0.13679   0.15501   0.16744

  Beta  occ. eigenvalues --  -19.74175 -19.70427 -19.69798 -19.68379 -10.61170
  Beta  occ. eigenvalues --  -10.60515 -10.53851  -1.31368  -1.28409  -1.05348
  Beta  occ. eigenvalues --   -0.97407  -0.85681  -0.79326  -0.69300  -0.63414
  Beta  occ. eigenvalues --   -0.60929  -0.59435  -0.56775  -0.55472  -0.52359
  Beta  occ. eigenvalues --   -0.50542  -0.46524  -0.46057  -0.44919  -0.42352
  Beta  occ. eigenvalues --   -0.40086  -0.36510  -0.34258
  Beta virt. eigenvalues --   -0.06237   0.01229   0.02533   0.02920   0.04264
  Beta virt. eigenvalues --    0.05676   0.06106   0.06817   0.07160   0.08821
  Beta virt. eigenvalues --    0.09661   0.10872   0.12005   0.13896   0.15761

 Mulliken charges and spin densities:
               1          2
     1  O   -0.136103  -0.000740
     2  O    0.047932   0.288815
     3  O   -0.270005   0.000650
     4  O   -0.177749   0.694149
     5  C   -0.175757  -0.005249
     6  C   -0.253915   0.007201
     7  C   -0.401797   0.011574
     8  H    0.204650   0.000350
     9  H    0.181028   0.002365
    10  H    0.206638   0.001193
    11  H    0.174108   0.000031
    12  H    0.162463  -0.000723
    13  H    0.153114   0.000499
    14  H    0.285393  -0.000114
 Sum of Mulliken charges =  -0.00000   1.00000

 Dipole moment (field-independent basis, Debye):
    X=             -2.3672    Y=             -0.1847    Z=              0.3490  Tot=              2.3999
 Quadrupole moment (field-independent basis, Debye-Ang):
   XX=            -44.0707   YY=            -39.5846   ZZ=            -42.1607
   XY=              6.6587   XZ=             -1.5459   YZ=              0.1346

 Normal termination of Gaussian 16 at Sun Apr 14 15:15:57 2019.
