 Gaussian 16, Revision A.03,
 Gaussian 16:  EM64L-G16RevA.03 25-Dec-2016

 ----------------------------------------------
 #p m062x/6-311+g(2df,2p) Opt=(CalcFC,ModRedun)
 ----------------------------------------------

 ----------------------------------------
 Gaussian Input Prepared from Scan Object
 ----------------------------------------
 Symbolic Z-matrix:
 Charge =  0 Multiplicity = 2

 SCF Done:  E(UM062X) =  -419.170824685     A.U. after   18 cycles

  Exact polarizability:   0.000   0.000   0.000   0.000   0.000   0.000
 Approx polarizability:  68.566  -3.463  58.176  -8.496   2.211  66.901

 Optimization completed.
    -- Stationary point found.
 SCF Done:  E(UM062X) =  -419.170734252     A.U. after   15 cycles
 SCF Done:  E(UM062X) =  -419.170750186     A.U. after   11 cycles
 SCF Done:  E(UM062X) =  -419.170750326     A.U. after   14 cycles
 Optimization completed.
 SCF Done:  E(UM062X) =  -419.170474340     A.U. after   15 cycles
 SCF Done:  E(UM062X) =  -419.170488635     A.U. after   15 cycles
 SCF Done:  E(UM062X) =  -419.170488592     A.U. after   13 cycles
 SCF Done:  E(UM062X) =  -419.169974102     A.U. after   15 cycles
 SCF Done:  E(UM062X) =  -419.169986463     A.U. after   15 cycles
 SCF Done:  E(UM062X) =  -419.169986399     A.U. after   12 cycles
 SCF Done:  E(UM062X) =  -419.170422595     A.U. after   15 cycles
 SCF Done:  E(UM062X) =  -419.170431190     A.U. after   14 cycles
 SCF Done:  E(UM062X) =  -419.170609067     A.U. after   15 cycles
 SCF Done:  E(UM062X) =  -419.170621341     A.U. after   14 cycles
 SCF Done:  E(UM062X) =  -419.170750665     A.U. after   15 cycles
 SCF Done:  E(UM062X) =  -419.170765698     A.U. after   15 cycles
 SCF Done:  E(UM062X) =  -419.170765708     A.U. after    9 cycles
    -- Stationary point found.
 SCF Done:  E(UM062X) =  -419.170808384     A.U. after   15 cycles
 SCF Done:  E(UM062X) =  -419.170824566     A.U. after   15 cycles
 SCF Done:  E(UM062X) =  -419.170824686     A.U. after   12 cycles
 Optimization completed.
    -- Stationary point found.

                         Standard orientation:
 ---------------------------------------------------------------------
 Center     Atomic      Atomic             Coordinates (Angstroms)
 Number     Number       Type             X           Y           Z
 ---------------------------------------------------------------------
      1          8           0       -1.732744   -0.154044   -0.675683
      2          8           0        1.645270   -0.404164    0.712050
      3          8           0       -2.409184   -0.026428    0.568842
      4          8           0        2.317831   -0.659889   -0.366250
      5          6           0        0.385366    0.257987    0.428030
      6          6           0       -0.461535   -0.696480   -0.406626
      7          6           0        0.611061    1.595988   -0.235450
      8          1           0       -0.055605    0.373075    1.416496
      9          1           0       -0.549884   -1.664327    0.093016
     10          1           0       -0.007293   -0.832381   -1.388339
     11          1           0        1.107716    1.461514   -1.194906
     12          1           0       -0.352289    2.074924   -0.400743
     13          1           0        1.222081    2.238087    0.396039
     14          1           0       -3.143464   -0.639664    0.451037
 ---------------------------------------------------------------------

 The electronic state is 2-A.
 Alpha  occ. eigenvalues --  -19.75021 -19.70429 -19.69800 -19.69765 -10.61147
 Alpha  occ. eigenvalues --  -10.60532 -10.53865  -1.34607  -1.28425  -1.05427
 Alpha  occ. eigenvalues --   -1.00717  -0.87030  -0.79553  -0.70108  -0.64187
 Alpha  occ. eigenvalues --   -0.62037  -0.60569  -0.59532  -0.56846  -0.55355
 Alpha  occ. eigenvalues --   -0.51457  -0.48497  -0.46641  -0.45368  -0.43024
 Alpha  occ. eigenvalues --   -0.40693  -0.37822  -0.36795  -0.35130
 Alpha virt. eigenvalues --    0.01216   0.02510   0.02882   0.04197   0.05660
 Alpha virt. eigenvalues --    0.06030   0.06745   0.07072   0.08682   0.09587
 Alpha virt. eigenvalues --    0.10881   0.11842   0.13678   0.15497   0.16743

  Beta  occ. eigenvalues --  -19.74171 -19.70427 -19.69799 -19.68377 -10.61172
  Beta  occ. eigenvalues --  -10.60515 -10.53851  -1.31368  -1.28410  -1.05349
  Beta  occ. eigenvalues --   -0.97410  -0.85679  -0.79326  -0.69301  -0.63414
  Beta  occ. eigenvalues --   -0.60929  -0.59437  -0.56775  -0.55471  -0.52360
  Beta  occ. eigenvalues --   -0.50542  -0.46525  -0.46057  -0.44920  -0.42358
  Beta  occ. eigenvalues --   -0.40087  -0.36512  -0.34250
  Beta virt. eigenvalues --   -0.06232   0.01229   0.02532   0.02920   0.04263
  Beta virt. eigenvalues --    0.05676   0.06106   0.06817   0.07160   0.08821
  Beta virt. eigenvalues --    0.09661   0.10871   0.12004   0.13896   0.15756

 Mulliken charges and spin densities:
               1          2
     1  O   -0.136095  -0.000736
     2  O    0.047982   0.288939
     3  O   -0.270050   0.000648
     4  O   -0.177852   0.694035
     5  C   -0.175802  -0.005254
     6  C   -0.253811   0.007189
     7  C   -0.401873   0.011568
     8  H    0.204699   0.000352
     9  H    0.181031   0.002366
    10  H    0.206639   0.001196
    11  H    0.174143   0.000032
    12  H    0.162482  -0.000720
    13  H    0.153112   0.000499
    14  H    0.285394  -0.000114
 Sum of Mulliken charges =  -0.00000   1.00000

 Dipole moment (field-independent basis, Debye):
    X=             -2.3692    Y=             -0.1850    Z=              0.3481  Tot=              2.4018
 Quadrupole moment (field-independent basis, Debye-Ang):
   XX=            -44.0769   YY=            -39.5823   ZZ=            -42.1605
   XY=              6.6593   XZ=             -1.5431   YZ=              0.1359

 Normal termination of Gaussian 16 at Sun Apr 14 15:18:15 2019.
