 Gaussian 16, Revision A.03,
 Gaussian 16:  EM64L-G16RevA.03 25-Dec-2016

 --------------------------------------------------------------------
 #p m062x/6-311+g(2df,2p) opt=(calcfc,maxcycle=1000) freq iop(7/33=1)
 --------------------------------------------------------------------

 ------------------------------
 Gaussian input prepared by ASE
 ------------------------------
 Symbolic Z-matrix:
 Charge =  0 Multiplicity = 1

 SCF Done:  E(RM062X) =  -386.225322652     A.U. after   14 cycles
 SCF Done:  E(RM062X) =  -386.262601628     A.U. after   13 cycles
 SCF Done:  E(RM062X) =  -386.290020234     A.U. after   13 cycles
 SCF Done:  E(RM062X) =  -386.292239815     A.U. after   12 cycles
 SCF Done:  E(RM062X) =  -386.264948904     A.U. after   12 cycles
 SCF Done:  E(RM062X) =  -386.295720176     A.U. after   13 cycles
 SCF Done:  E(RM062X) =  -386.290472780     A.U. after   14 cycles
 SCF Done:  E(RM062X) =  -386.296655431     A.U. after   10 cycles
 SCF Done:  E(RM062X) =  -386.296903171     A.U. after   11 cycles
 SCF Done:  E(RM062X) =  -386.296967656     A.U. after   10 cycles
 SCF Done:  E(RM062X) =  -386.298957671     A.U. after   11 cycles
 SCF Done:  E(RM062X) =  -386.299005716     A.U. after   10 cycles
 SCF Done:  E(RM062X) =  -386.299035554     A.U. after   10 cycles
 SCF Done:  E(RM062X) =  -386.299048691     A.U. after    9 cycles
 SCF Done:  E(RM062X) =  -386.299057817     A.U. after   10 cycles
 SCF Done:  E(RM062X) =  -386.299059311     A.U. after    9 cycles
 SCF Done:  E(RM062X) =  -386.299059915     A.U. after    9 cycles
 SCF Done:  E(RM062X) =  -386.299059936     A.U. after    8 cycles
 SCF Done:  E(RM062X) =  -386.299059994     A.U. after    8 cycles
 Optimization completed.
    -- Stationary point found.
 Normal termination of Gaussian 16 at Tue Feb 26 08:55:00 2019.

 ----------------------------------------------------------------------
 #P Geom=AllCheck Guess=TCheck SCRF=Check Test GenChk RM062X/6-311+G(2d
 f,2p) Freq
 ----------------------------------------------------------------------

 Structure from the checkpoint file:  "/scratch/underkoffler.c/gaussian_scratch/Gau-25812.chk"
 ------------------------------
 Gaussian input prepared by ASE
 ------------------------------
 Charge =  0 Multiplicity = 1

                         Standard orientation:
 ---------------------------------------------------------------------
 Center     Atomic      Atomic             Coordinates (Angstroms)
 Number     Number       Type             X           Y           Z
 ---------------------------------------------------------------------
      1          8           0       -1.256640   -0.977955    0.975064
      2          8           0       -2.103049   -0.584989   -1.050155
      3          6           0        1.460284    1.063311   -0.379902
      4          6           0        0.382947    1.375751    0.660214
      5          6           0        1.578154   -0.406311   -0.788461
      6          6           0       -1.049102    1.229267    0.136764
      7          6           0        2.034381   -1.314337    0.349609
      8          6           0       -1.522210   -0.182344   -0.081469
      9          1           0        0.631257   -0.764801   -1.198686
     10          1           0        2.295951   -0.474601   -1.608184
     11          1           0        2.426410    1.388966    0.014863
     12          1           0        1.270261    1.670876   -1.268764
     13          1           0        0.506284    2.409341    0.986082
     14          1           0        0.510532    0.755356    1.548052
     15          1           0       -1.742816    1.663531    0.861221
     16          1           0       -1.182096    1.758209   -0.805455
     17          1           0        1.313972   -1.327241    1.166308
     18          1           0        2.161834   -2.340139    0.005028
     19          1           0        2.991802   -0.975947    0.749783
     20          1           0       -1.612607   -1.852017    0.769945
 ---------------------------------------------------------------------

 SCF Done:  E(RM062X) =  -386.299059994     A.U. after    1 cycles

 The electronic state is 1-A.
 Alpha  occ. eigenvalues --  -19.67336 -19.61684 -10.67728 -10.55292 -10.54172
 Alpha  occ. eigenvalues --  -10.53306 -10.52948 -10.51917  -1.24215  -1.14494
 Alpha  occ. eigenvalues --   -0.92097  -0.86822  -0.79916  -0.73404  -0.69279
 Alpha  occ. eigenvalues --   -0.64982  -0.58359  -0.57898  -0.56053  -0.52527
 Alpha  occ. eigenvalues --   -0.51627  -0.49107  -0.48737  -0.47905  -0.44488
 Alpha  occ. eigenvalues --   -0.43287  -0.42067  -0.40735  -0.38959  -0.38617
 Alpha  occ. eigenvalues --   -0.37745  -0.35307
 Alpha virt. eigenvalues --    0.00727   0.01782   0.02280   0.03034   0.04333
 Alpha virt. eigenvalues --    0.04663   0.05397   0.05634   0.06334   0.06771
 Alpha virt. eigenvalues --    0.08346   0.08914   0.09484   0.10196   0.10298

 Mulliken charges:
               1
     1  O   -0.302528
     2  O   -0.399752
     3  C   -0.412548
     4  C   -0.276048
     5  C   -0.197240
     6  C   -0.201868
     7  C   -0.531867
     8  C    0.136313
     9  H    0.190748
    10  H    0.162299
    11  H    0.172920
    12  H    0.174119
    13  H    0.164802
    14  H    0.204455
    15  H    0.176425
    16  H    0.202102
    17  H    0.154360
    18  H    0.146017
    19  H    0.144765
    20  H    0.292526
 Sum of Mulliken charges =  -0.00000

 Dipole moment (field-independent basis, Debye):
    X=              1.0521    Y=              0.5688    Z=              1.4329  Tot=              1.8664
 Quadrupole moment (field-independent basis, Debye-Ang):
   XX=            -53.5052   YY=            -45.7834   ZZ=            -54.2242
   XY=             -0.1481   XZ=             -4.8617   YZ=             -1.3622

  Exact polarizability:  79.452   0.172  79.966   2.909   0.304  72.996
 Approx polarizability:  88.204   1.994  90.868   5.309   0.773  94.326

                      1                      2                      3
                      A                      A                      A
 Frequencies --     51.0593                72.9010               112.8715
 Red. masses --      3.5892                 4.6218                 3.9729
 Frc consts  --      0.0055                 0.0145                 0.0298
 IR Inten    --      0.7591                 1.0278                 0.0090

                      4                      5                      6
                      A                      A                      A
 Frequencies --    153.5826               211.8949               276.3456
 Red. masses --      1.9298                 1.6139                 2.0342
 Frc consts  --      0.0268                 0.0427                 0.0915
 IR Inten    --      0.0564                 0.0809                 0.0563

                      7                      8                      9
                      A                      A                      A
 Frequencies --    300.1717               394.0318               427.8867
 Red. masses --      2.0332                 1.7261                 2.3958
 Frc consts  --      0.1079                 0.1579                 0.2584
 IR Inten    --      0.2765                 0.4892                 1.9152

                     10                     11                     12
                      A                      A                      A
 Frequencies --    487.3687               560.5251               597.8146
 Red. masses --      2.1428                 2.3433                 1.7133
 Frc consts  --      0.2999                 0.4338                 0.3608
 IR Inten    --      3.7660                39.5374                58.9359

                     13                     14                     15
                      A                      A                      A
 Frequencies --    690.9388               765.3566               786.4018
 Red. masses --      2.0640                 1.2679                 2.4877
 Frc consts  --      0.5806                 0.4376                 0.9065
 IR Inten    --     72.6213                 3.8571                 8.5793

                     16                     17                     18
                      A                      A                      A
 Frequencies --    845.6175               873.8768               913.9249
 Red. masses --      2.0950                 1.5791                 2.1580
 Frc consts  --      0.8826                 0.7105                 1.0620
 IR Inten    --      3.0938                 1.6693                 8.3603

                     19                     20                     21
                      A                      A                      A
 Frequencies --    960.8002               997.8815              1035.9300
 Red. masses --      2.0168                 1.4796                 2.1622
 Frc consts  --      1.0969                 0.8681                 1.3671
 IR Inten    --     10.7392                 5.1801                 1.1232

                     22                     23                     24
                      A                      A                      A
 Frequencies --   1102.7552              1116.2977              1127.9002
 Red. masses --      1.5948                 1.8761                 1.7837
 Frc consts  --      1.1427                 1.3774                 1.3369
 IR Inten    --     54.7345                 1.5128                 8.8180

                     25                     26                     27
                      A                      A                      A
 Frequencies --   1188.3144              1237.4790              1248.9014
 Red. masses --      1.8458                 1.4903                 1.3068
 Frc consts  --      1.5357                 1.3446                 1.2010
 IR Inten    --     66.6771                80.3873                 1.9313

                     28                     29                     30
                      A                      A                      A
 Frequencies --   1283.1456              1324.4715              1346.4481
 Red. masses --      1.2236                 1.1860                 1.5222
 Frc consts  --      1.1869                 1.2258                 1.6259
 IR Inten    --      1.1098                 3.2391                17.2567

                     31                     32                     33
                      A                      A                      A
 Frequencies --   1372.0027              1387.9084              1398.8295
 Red. masses --      1.4002                 1.7238                 1.5108
 Frc consts  --      1.5529                 1.9564                 1.7417
 IR Inten    --      3.5795                22.7903                 0.5583

                     34                     35                     36
                      A                      A                      A
 Frequencies --   1405.6295              1419.2194              1470.2758
 Red. masses --      1.6585                 1.3253                 1.0990
 Frc consts  --      1.9307                 1.5728                 1.3997
 IR Inten    --     30.8596                 3.3782                13.7427

                     37                     38                     39
                      A                      A                      A
 Frequencies --   1489.4844              1497.9774              1502.1263
 Red. masses --      1.0751                 1.0930                 1.0467
 Frc consts  --      1.4053                 1.4450                 1.3915
 IR Inten    --      1.6987                11.0690                 0.5632

                     40                     41                     42
                      A                      A                      A
 Frequencies --   1513.6802              1521.4200              1866.1530
 Red. masses --      1.0658                 1.0721                 9.9970
 Frc consts  --      1.4387                 1.4621                20.5123
 IR Inten    --     10.9316                 4.5845               344.3491

                     43                     44                     45
                      A                      A                      A
 Frequencies --   3044.5405              3060.6480              3064.1387
 Red. masses --      1.0610                 1.0455                 1.0593
 Frc consts  --      5.7945                 5.7703                 5.8599
 IR Inten    --     22.0016                17.8057                18.6447

                     46                     47                     48
                      A                      A                      A
 Frequencies --   3067.8773              3076.4042              3084.4302
 Red. masses --      1.0648                 1.0709                 1.0897
 Frc consts  --      5.9048                 5.9718                 6.1080
 IR Inten    --      8.0861                 9.5144                32.4658

                     49                     50                     51
                      A                      A                      A
 Frequencies --   3097.0697              3114.9120              3127.3246
 Red. masses --      1.0991                 1.1022                 1.1004
 Frc consts  --      6.2112                 6.3010                 6.3408
 IR Inten    --     26.6934                14.0379                30.3816

                     52                     53                     54
                      A                      A                      A
 Frequencies --   3137.5367              3144.6885              3830.2126
 Red. masses --      1.0980                 1.1007                 1.0645
 Frc consts  --      6.3681                 6.4130                 9.2010
 IR Inten    --     10.4961                22.9397                88.8879

 - Thermochemistry -
 -------------------
 Temperature   298.150 Kelvin.  Pressure   1.00000 Atm.
 Atom     1 has atomic number  8 and mass  15.99491

 Molecular mass:   116.08373 amu.
 Principal axes and moments of inertia in atomic units:
                           1         2         3
     Eigenvalues --   677.245811220.462381454.88736
           X            0.99915  -0.03942  -0.01181
           Y            0.03934   0.99920  -0.00732
           Z            0.01209   0.00685   0.99990
 This molecule is an asymmetric top.
 Rotational symmetry number  1.
 Warning -- assumption of classical behavior for rotation
           may cause significant error
 Rotational temperatures (Kelvin)      0.12789     0.07097     0.05953
 Rotational constants (GHZ):           2.66482     1.47874     1.24047
 Zero-point vibrational energy     467664.4 (Joules/Mol)
                                  111.77448 (Kcal/Mol)
 Warning -- explicit consideration of  12 degrees of freedom as
           vibrations may cause significant error
 Vibrational temperatures:     73.46   104.89   162.40   220.97   304.87
          (Kelvin)            397.60   431.88   566.92   615.63   701.21
                              806.47   860.12   994.11  1101.18  1131.46
                             1216.65  1257.31  1314.93  1382.38  1435.73
                             1490.47  1586.62  1606.10  1622.80  1709.72
                             1780.46  1796.89  1846.16  1905.62  1937.24
                             1974.01  1996.89  2012.60  2022.39  2041.94
                             2115.40  2143.04  2155.26  2161.22  2177.85
                             2188.98  2684.98  4380.41  4403.59  4408.61
                             4413.99  4426.26  4437.81  4455.99  4481.66
                             4499.52  4514.22  4524.51  5510.82

 Zero-point correction=                           0.178124 (Hartree/Particle)
 Thermal correction to Energy=                    0.187306
 Thermal correction to Enthalpy=                  0.188250
 Thermal correction to Gibbs Free Energy=         0.143588
 Sum of electronic and zero-point Energies=           -386.120936
 Sum of electronic and thermal Energies=              -386.111754
 Sum of electronic and thermal Enthalpies=            -386.110810
 Sum of electronic and thermal Free Energies=         -386.155472

                     E (Thermal)             CV                S
                      KCal/Mol        Cal/Mol-Kelvin    Cal/Mol-Kelvin
 Total                  117.536             33.046             93.999
 Electronic               0.000              0.000              0.000
 Translational            0.889              2.981             40.163
 Rotational               0.889              2.981             28.577
 Vibrational            115.759             27.084             25.260
 Vibration     1          0.595              1.977              4.776
 Vibration     2          0.599              1.967              4.073
 Vibration     3          0.607              1.939              3.219
 Vibration     4          0.619              1.899              2.627
 Vibration     5          0.643              1.823              2.027
 Vibration     6          0.678              1.717              1.556
 Vibration     7          0.693              1.673              1.416
 Vibration     8          0.761              1.483              0.985
 Vibration     9          0.789              1.410              0.866
 Vibration    10          0.843              1.278              0.690
 Vibration    11          0.916              1.117              0.523
 Vibration    12          0.956              1.036              0.453

 Optimization completed.
    -- Stationary point found.
 Normal termination of Gaussian 16 at Tue Feb 26 12:51:17 2019.
