 Gaussian 16, Revision A.03,
 Gaussian 16:  EM64L-G16RevA.03 25-Dec-2016

 ----------------------------------------------
 #p m062x/6-311+g(2df,2p) Opt=(CalcFC,ModRedun)
 ----------------------------------------------

 ----------------------------------------
 Gaussian Input Prepared from Scan Object
 ----------------------------------------
 Symbolic Z-matrix:
 Charge =  0 Multiplicity = 1

 SCF Done:  E(RM062X) =  -359.584381516     A.U. after   13 cycles

  Exact polarizability:   0.000   0.000   0.000   0.000   0.000   0.000
 Approx polarizability:  58.914   3.988  55.254  -2.237  -0.599  43.395

 Optimization completed.
    -- Stationary point found.
 SCF Done:  E(RM062X) =  -359.583665521     A.U. after   11 cycles
 SCF Done:  E(RM062X) =  -359.583934561     A.U. after   11 cycles
 SCF Done:  E(RM062X) =  -359.583943834     A.U. after    9 cycles
 Optimization completed.
 SCF Done:  E(RM062X) =  -359.582412828     A.U. after   11 cycles
 SCF Done:  E(RM062X) =  -359.582702823     A.U. after   11 cycles
 SCF Done:  E(RM062X) =  -359.582710182     A.U. after    9 cycles
 SCF Done:  E(RM062X) =  -359.582710258     A.U. after    7 cycles
 SCF Done:  E(RM062X) =  -359.580504055     A.U. after   11 cycles
 SCF Done:  E(RM062X) =  -359.580814744     A.U. after   11 cycles
 SCF Done:  E(RM062X) =  -359.570284514     A.U. after   11 cycles
 SCF Done:  E(RM062X) =  -359.570285418     A.U. after    8 cycles
 SCF Done:  E(RM062X) =  -359.570703510     A.U. after   12 cycles
 SCF Done:  E(RM062X) =  -359.570799926     A.U. after   11 cycles
 SCF Done:  E(RM062X) =  -359.570800761     A.U. after    8 cycles
 SCF Done:  E(RM062X) =  -359.570800909     A.U. after    8 cycles
    -- Stationary point found.
 SCF Done:  E(RM062X) =  -359.570753123     A.U. after   12 cycles
 SCF Done:  E(RM062X) =  -359.570846207     A.U. after   11 cycles
 SCF Done:  E(RM062X) =  -359.570847007     A.U. after    9 cycles
 SCF Done:  E(RM062X) =  -359.570847099     A.U. after    8 cycles
 Optimization completed.
    -- Stationary point found.

                         Standard orientation:
 ---------------------------------------------------------------------
 Center     Atomic      Atomic             Coordinates (Angstroms)
 Number     Number       Type             X           Y           Z
 ---------------------------------------------------------------------
      1          8           0        2.537511   -0.110566   -0.079530
      2          8           0       -1.492169    1.176717    0.045522
      3          8           0       -1.944728   -0.963291   -0.242306
      4          7           0        1.219954    0.146882   -0.488183
      5          6           0        0.283536   -0.432743    0.462384
      6          6           0       -1.147977   -0.131525    0.048708
      7          1           0        0.411408   -1.510619    0.450478
      8          1           0        0.440796   -0.070693    1.492094
      9          1           0        1.118721    1.154864   -0.563853
     10          1           0        2.649571    0.223985    0.820945
     11          1           0       -0.778451    1.737013    0.361567
 ---------------------------------------------------------------------

 The electronic state is 1-A.
 Alpha  occ. eigenvalues --  -19.69138 -19.67915 -19.63088 -14.82131 -10.69471
 Alpha  occ. eigenvalues --  -10.60494  -1.25509  -1.22404  -1.16796  -0.97800
 Alpha  occ. eigenvalues --   -0.82179  -0.72915  -0.66138  -0.63630  -0.59790
 Alpha  occ. eigenvalues --   -0.56419  -0.53980  -0.52428  -0.49598  -0.47395
 Alpha  occ. eigenvalues --   -0.42164  -0.40907  -0.37238  -0.34287
 Alpha virt. eigenvalues --   -0.02127   0.01722   0.02679   0.02878   0.04292
 Alpha virt. eigenvalues --    0.06727   0.07225   0.08086   0.09776   0.10787
 Alpha virt. eigenvalues --    0.12397   0.13282   0.15913   0.17173   0.18681

 Mulliken charges:
               1
     1  O   -0.193405
     2  O   -0.266454
     3  O   -0.348409
     4  N   -0.228063
     5  C   -0.171066
     6  C    0.217435
     7  H    0.184996
     8  H    0.151938
     9  H    0.191551
    10  H    0.231389
    11  H    0.230089
 Sum of Mulliken charges =  -0.00000

 Dipole moment (field-independent basis, Debye):
    X=              2.5047    Y=              3.0496    Z=              3.3557  Tot=              5.1802
 Quadrupole moment (field-independent basis, Debye-Ang):
   XX=            -46.2867   YY=            -32.8161   ZZ=            -34.6023
   XY=              0.9314   XZ=              3.2901   YZ=             -0.0498

 Normal termination of Gaussian 16 at Thu Feb 28 15:35:43 2019.
