 Gaussian 16, Revision A.03,
 Gaussian 16:  EM64L-G16RevA.03 25-Dec-2016

 ----------------------------------------------
 #p m062x/6-311+g(2df,2p) Opt=(CalcFC,ModRedun)
 ----------------------------------------------

 ----------------------------------------
 Gaussian Input Prepared from Scan Object
 ----------------------------------------
 Symbolic Z-matrix:
 Charge =  0 Multiplicity = 1

 SCF Done:  E(RM062X) =  -359.584381516     A.U. after   13 cycles

  Exact polarizability:   0.000   0.000   0.000   0.000   0.000   0.000
 Approx polarizability:  58.914   3.988  55.254  -2.237  -0.599  43.395

 Optimization completed.
    -- Stationary point found.
 SCF Done:  E(RM062X) =  -359.583752906     A.U. after   10 cycles
 SCF Done:  E(RM062X) =  -359.584124525     A.U. after   10 cycles
 SCF Done:  E(RM062X) =  -359.584126989     A.U. after    9 cycles
 Optimization completed.
 SCF Done:  E(RM062X) =  -359.583031949     A.U. after   10 cycles
 SCF Done:  E(RM062X) =  -359.583421719     A.U. after   10 cycles
 SCF Done:  E(RM062X) =  -359.583424633     A.U. after    8 cycles
 SCF Done:  E(RM062X) =  -359.583424661     A.U. after    8 cycles
 SCF Done:  E(RM062X) =  -359.581986449     A.U. after   11 cycles
 SCF Done:  E(RM062X) =  -359.582408934     A.U. after   10 cycles
 SCF Done:  E(RM062X) =  -359.582891901     A.U. after   10 cycles
 SCF Done:  E(RM062X) =  -359.583336676     A.U. after   10 cycles
 SCF Done:  E(RM062X) =  -359.583343817     A.U. after    8 cycles
 SCF Done:  E(RM062X) =  -359.583720071     A.U. after   10 cycles
 SCF Done:  E(RM062X) =  -359.584110541     A.U. after   10 cycles
 SCF Done:  E(RM062X) =  -359.584116488     A.U. after    9 cycles
    -- Stationary point found.
 SCF Done:  E(RM062X) =  -359.584007342     A.U. after   11 cycles
 SCF Done:  E(RM062X) =  -359.584378077     A.U. after   10 cycles
 SCF Done:  E(RM062X) =  -359.584381483     A.U. after    9 cycles
 SCF Done:  E(RM062X) =  -359.584381514     A.U. after    7 cycles
 Optimization completed.
    -- Stationary point found.

                         Standard orientation:
 ---------------------------------------------------------------------
 Center     Atomic      Atomic             Coordinates (Angstroms)
 Number     Number       Type             X           Y           Z
 ---------------------------------------------------------------------
      1          8           0        2.489633    0.001547   -0.207687
      2          8           0       -1.227357    1.247029   -0.106972
      3          8           0       -2.157217   -0.761718    0.071434
      4          7           0        1.218622    0.303156    0.306284
      5          6           0        0.223940   -0.674571   -0.104455
      6          6           0       -1.180641   -0.083850   -0.023206
      7          1           0        0.410915   -0.895441   -1.156536
      8          1           0        0.235557   -1.614208    0.452866
      9          1           0        1.298833    0.341498    1.318123
     10          1           0        2.739774   -0.876920    0.106043
     11          1           0       -0.315690    1.578630   -0.152726
 ---------------------------------------------------------------------

 The electronic state is 1-A.
 Alpha  occ. eigenvalues --  -19.68614 -19.67304 -19.61857 -14.83013 -10.68398
 Alpha  occ. eigenvalues --  -10.60280  -1.24475  -1.22956  -1.15568  -0.98376
 Alpha  occ. eigenvalues --   -0.82143  -0.70785  -0.66498  -0.63783  -0.60120
 Alpha  occ. eigenvalues --   -0.55979  -0.54095  -0.51664  -0.48820  -0.46972
 Alpha  occ. eigenvalues --   -0.42023  -0.40172  -0.36679  -0.35463
 Alpha virt. eigenvalues --   -0.00794   0.02023   0.02686   0.03873   0.04262
 Alpha virt. eigenvalues --    0.07034   0.07334   0.07895   0.09912   0.10708
 Alpha virt. eigenvalues --    0.12102   0.13324   0.15922   0.18184   0.19054

 Mulliken charges:
               1
     1  O   -0.198927
     2  O   -0.279512
     3  O   -0.377108
     4  N   -0.349036
     5  C   -0.111294
     6  C    0.194914
     7  H    0.184046
     8  H    0.159727
     9  H    0.246611
    10  H    0.247236
    11  H    0.283341
 Sum of Mulliken charges =  -0.00000

 Dipole moment (field-independent basis, Debye):
    X=              3.9626    Y=             -1.1943    Z=              1.2392  Tot=              4.3202
 Quadrupole moment (field-independent basis, Debye-Ang):
   XX=            -45.6372   YY=            -34.6020   ZZ=            -32.5987
   XY=             -5.7080   XZ=              3.4861   YZ=              0.2863

 Normal termination of Gaussian 16 at Sun Mar  3 11:47:23 2019.
