 Gaussian 16, Revision A.03,
 Gaussian 16:  EM64L-G16RevA.03 25-Dec-2016

 ----------------------------------------------
 #p m062x/6-311+g(2df,2p) Opt=(CalcFC,ModRedun)
 ----------------------------------------------

 ----------------------------------------
 Gaussian Input Prepared from Scan Object
 ----------------------------------------
 Symbolic Z-matrix:
 Charge =  0 Multiplicity = 1

 SCF Done:  E(RM062X) =  -359.584381516     A.U. after   13 cycles

  Exact polarizability:   0.000   0.000   0.000   0.000   0.000   0.000
 Approx polarizability:  58.914   3.988  55.254  -2.237  -0.599  43.395

 Optimization completed.
    -- Stationary point found.
 SCF Done:  E(RM062X) =  -359.583011218     A.U. after   11 cycles
 SCF Done:  E(RM062X) =  -359.584082671     A.U. after   11 cycles
 SCF Done:  E(RM062X) =  -359.584090983     A.U. after    9 cycles
 SCF Done:  E(RM062X) =  -359.584091087     A.U. after    7 cycles
 Optimization completed.
 SCF Done:  E(RM062X) =  -359.582173189     A.U. after   11 cycles
 SCF Done:  E(RM062X) =  -359.583241000     A.U. after   11 cycles
 SCF Done:  E(RM062X) =  -359.583249499     A.U. after   10 cycles
 SCF Done:  E(RM062X) =  -359.583249618     A.U. after    7 cycles
 SCF Done:  E(RM062X) =  -359.580844253     A.U. after   11 cycles
 SCF Done:  E(RM062X) =  -359.585095408     A.U. after   13 cycles
 SCF Done:  E(RM062X) =  -359.585244629     A.U. after   11 cycles
 SCF Done:  E(RM062X) =  -359.585253094     A.U. after   11 cycles
 SCF Done:  E(RM062X) =  -359.585271121     A.U. after   11 cycles
 SCF Done:  E(RM062X) =  -359.585271372     A.U. after    8 cycles
    -- Stationary point found.
 SCF Done:  E(RM062X) =  -359.583521805     A.U. after   12 cycles
 SCF Done:  E(RM062X) =  -359.584711143     A.U. after   12 cycles
 SCF Done:  E(RM062X) =  -359.584766362     A.U. after   11 cycles
 SCF Done:  E(RM062X) =  -359.584789123     A.U. after   10 cycles
 SCF Done:  E(RM062X) =  -359.584789308     A.U. after    7 cycles
 Optimization completed.
    -- Stationary point found.

                         Standard orientation:
 ---------------------------------------------------------------------
 Center     Atomic      Atomic             Coordinates (Angstroms)
 Number     Number       Type             X           Y           Z
 ---------------------------------------------------------------------
      1          8           0        1.932664    0.545113   -0.189580
      2          8           0       -0.743969    1.302337    0.125664
      3          8           0       -2.184908   -0.368077   -0.035077
      4          7           0        1.312463   -0.518056    0.504841
      5          6           0        0.115260   -0.952799   -0.193128
      6          6           0       -1.053478    0.012866   -0.021091
      7          1           0        0.289619   -1.072606   -1.272834
      8          1           0       -0.196048   -1.911860    0.213384
      9          1           0        1.987694   -1.271572    0.567001
     10          1           0        2.114663    0.257136   -1.095596
     11          1           0        0.215841    1.429908    0.131417
 ---------------------------------------------------------------------

 The electronic state is 1-A.
 Alpha  occ. eigenvalues --  -19.69763 -19.66689 -19.61323 -14.82792 -10.67906
 Alpha  occ. eigenvalues --  -10.60506  -1.24640  -1.22877  -1.14897  -0.98570
 Alpha  occ. eigenvalues --   -0.82310  -0.70894  -0.67843  -0.61351  -0.59555
 Alpha  occ. eigenvalues --   -0.57783  -0.53819  -0.52482  -0.48835  -0.46036
 Alpha  occ. eigenvalues --   -0.42563  -0.39813  -0.37506  -0.34264
 Alpha virt. eigenvalues --   -0.01274   0.02062   0.03502   0.03910   0.04961
 Alpha virt. eigenvalues --    0.07059   0.07500   0.07938   0.08452   0.10612
 Alpha virt. eigenvalues --    0.12706   0.14151   0.16132   0.17677   0.18017

 Mulliken charges:
               1
     1  O   -0.273480
     2  O   -0.303585
     3  O   -0.382988
     4  N   -0.231792
     5  C   -0.188687
     6  C    0.292058
     7  H    0.150309
     8  H    0.165390
     9  H    0.224501
    10  H    0.256208
    11  H    0.292066
 Sum of Mulliken charges =  -0.00000

 Dipole moment (field-independent basis, Debye):
    X=              4.7080    Y=             -2.2856    Z=             -1.9340  Tot=              5.5794
 Quadrupole moment (field-independent basis, Debye-Ang):
   XX=            -42.1852   YY=            -33.5105   ZZ=            -33.8823
   XY=             -2.9765   XZ=             -3.2888   YZ=             -0.7632

 Normal termination of Gaussian 16 at Thu Feb 28 16:32:12 2019.
