 Gaussian 16, Revision A.03,
 Gaussian 16:  EM64L-G16RevA.03 25-Dec-2016

 ----------------------------------------------
 #p m062x/6-311+g(2df,2p) Opt=(CalcFC,ModRedun)
 ----------------------------------------------

 ----------------------------------------
 Gaussian Input Prepared from Scan Object
 ----------------------------------------
 Symbolic Z-matrix:
 Charge =  0 Multiplicity = 1

 SCF Done:  E(RM062X) =  -359.584381516     A.U. after   13 cycles

  Exact polarizability:   0.000   0.000   0.000   0.000   0.000   0.000
 Approx polarizability:  58.914   3.988  55.254  -2.237  -0.599  43.395

 Optimization completed.
    -- Stationary point found.
 SCF Done:  E(RM062X) =  -359.583642458     A.U. after   11 cycles
 SCF Done:  E(RM062X) =  -359.583918540     A.U. after   11 cycles
 SCF Done:  E(RM062X) =  -359.583922622     A.U. after    9 cycles
 Optimization completed.
 SCF Done:  E(RM062X) =  -359.582271953     A.U. after   11 cycles
 SCF Done:  E(RM062X) =  -359.582523515     A.U. after   11 cycles
 SCF Done:  E(RM062X) =  -359.582527770     A.U. after    9 cycles
 SCF Done:  E(RM062X) =  -359.580000668     A.U. after   11 cycles
 SCF Done:  E(RM062X) =  -359.580251670     A.U. after   12 cycles
 SCF Done:  E(RM062X) =  -359.580253895     A.U. after    9 cycles
 SCF Done:  E(RM062X) =  -359.575283652     A.U. after    8 cycles
 SCF Done:  E(RM062X) =  -359.576588704     A.U. after   11 cycles
 SCF Done:  E(RM062X) =  -359.576704765     A.U. after   11 cycles
 SCF Done:  E(RM062X) =  -359.576705117     A.U. after    9 cycles
 SCF Done:  E(RM062X) =  -359.577553093     A.U. after   11 cycles
 SCF Done:  E(RM062X) =  -359.577651195     A.U. after   11 cycles
 SCF Done:  E(RM062X) =  -359.577651284     A.U. after    8 cycles
    -- Stationary point found.
 SCF Done:  E(RM062X) =  -359.577976763     A.U. after   11 cycles
 SCF Done:  E(RM062X) =  -359.578065630     A.U. after   11 cycles
 SCF Done:  E(RM062X) =  -359.578065706     A.U. after    8 cycles
 Optimization completed.
    -- Stationary point found.

                         Standard orientation:
 ---------------------------------------------------------------------
 Center     Atomic      Atomic             Coordinates (Angstroms)
 Number     Number       Type             X           Y           Z
 ---------------------------------------------------------------------
      1          8           0        2.550191    0.167266   -0.030094
      2          8           0       -2.172589    0.662476    0.041436
      3          8           0       -1.182376   -1.305802   -0.096086
      4          7           0        1.290126   -0.296401    0.378695
      5          6           0        0.250630    0.602676   -0.063903
      6          6           0       -1.082541   -0.119965   -0.027612
      7          1           0        0.238433    1.489016    0.573066
      8          1           0        0.393376    0.944510   -1.102199
      9          1           0        1.131864   -1.221912   -0.008236
     10          1           0        2.567860    0.184282   -0.996524
     11          1           0       -1.932751    1.591121    0.110075
 ---------------------------------------------------------------------

 The electronic state is 1-A.
 Alpha  occ. eigenvalues --  -19.69215 -19.66789 -19.63336 -14.80332 -10.69745
 Alpha  occ. eigenvalues --  -10.60457  -1.25798  -1.21221  -1.17068  -0.97026
 Alpha  occ. eigenvalues --   -0.81696  -0.72779  -0.65778  -0.62600  -0.59371
 Alpha  occ. eigenvalues --   -0.57298  -0.53259  -0.52128  -0.50379  -0.46557
 Alpha  occ. eigenvalues --   -0.41881  -0.40295  -0.37268  -0.33236
 Alpha virt. eigenvalues --   -0.00729   0.00799   0.03241   0.03710   0.04066
 Alpha virt. eigenvalues --    0.06524   0.07404   0.08109   0.09013   0.11422
 Alpha virt. eigenvalues --    0.12808   0.13851   0.15986   0.18615   0.18984

 Mulliken charges:
               1
     1  O   -0.206427
     2  O   -0.270575
     3  O   -0.385132
     4  N   -0.260167
     5  C   -0.122801
     6  C    0.239112
     7  H    0.146106
     8  H    0.144239
     9  H    0.238727
    10  H    0.229826
    11  H    0.247094
 Sum of Mulliken charges =  -0.00000

 Dipole moment (field-independent basis, Debye):
    X=              0.2418    Y=              3.3686    Z=             -2.2218  Tot=              4.0426
 Quadrupole moment (field-independent basis, Debye-Ang):
   XX=            -43.4697   YY=            -33.1251   ZZ=            -34.1993
   XY=             -6.1525   XZ=             -5.7898   YZ=              0.4549

 Normal termination of Gaussian 16 at Sun Mar  3 12:03:19 2019.
