 Gaussian 16, Revision A.03,
 Gaussian 16:  EM64L-G16RevA.03 25-Dec-2016

 ----------------------------------------------------------------------
 #p m062x/6-311+g(2df,2p) opt=(calcfc,verytight,maxcycles=900) freq iop
 (7/33=1)
 ----------------------------------------------------------------------

 ------------------------------
 Gaussian input prepared by ASE
 ------------------------------
 Symbolic Z-matrix:
 Charge =  0 Multiplicity = 1

 SCF Done:  E(RM062X) =  -359.531671027     A.U. after   13 cycles
 SCF Done:  E(RM062X) =  -359.566087721     A.U. after   13 cycles
 SCF Done:  E(RM062X) =  -359.578689068     A.U. after   14 cycles
 SCF Done:  E(RM062X) =  -359.553543700     A.U. after   14 cycles
 SCF Done:  E(RM062X) =  -359.560866907     A.U. after   13 cycles
 SCF Done:  E(RM062X) =  -359.581421616     A.U. after   10 cycles
 SCF Done:  E(RM062X) =  -359.583316945     A.U. after   13 cycles
 SCF Done:  E(RM062X) =  -359.576430557     A.U. after   13 cycles
 SCF Done:  E(RM062X) =  -359.584289037     A.U. after   12 cycles
 SCF Done:  E(RM062X) =  -359.583774290     A.U. after   12 cycles
 SCF Done:  E(RM062X) =  -359.584381516     A.U. after    5 cycles
 SCF Done:  E(RM062X) =  -359.584381517     A.U. after    3 cycles
 SCF Done:  E(RM062X) =  -359.584381516     A.U. after    3 cycles
 SCF Done:  E(RM062X) =  -359.584381516     A.U. after    3 cycles
 SCF Done:  E(RM062X) =  -359.584381517     A.U. after    2 cycles
 SCF Done:  E(RM062X) =  -359.584381516     A.U. after    3 cycles
 SCF Done:  E(RM062X) =  -359.584381516     A.U. after    2 cycles
 SCF Done:  E(RM062X) =  -359.584381516     A.U. after    4 cycles
 SCF Done:  E(RM062X) =  -359.584381516     A.U. after    3 cycles
 Optimization completed.
    -- Stationary point found.
 Normal termination of Gaussian 16 at Thu Feb 28 12:52:04 2019.

 ----------------------------------------------------------------------
 #P Geom=AllCheck Guess=TCheck SCRF=Check Test GenChk RM062X/6-311+G(2d
 f,2p) Freq
 ----------------------------------------------------------------------

 Structure from the checkpoint file:  "/scratch/underkoffler.c/gaussian_scratch/Gau-34033.chk"
 ------------------------------
 Gaussian input prepared by ASE
 ------------------------------
 Charge =  0 Multiplicity = 1

                         Standard orientation:
 ---------------------------------------------------------------------
 Center     Atomic      Atomic             Coordinates (Angstroms)
 Number     Number       Type             X           Y           Z
 ---------------------------------------------------------------------
      1          8           0        2.489568    0.001589   -0.207874
      2          8           0       -1.227273    1.247054   -0.106967
      3          8           0       -2.157277   -0.761642    0.071281
      4          7           0        1.218653    0.303079    0.306409
      5          6           0        0.223907   -0.674639   -0.104244
      6          6           0       -1.180649   -0.083826   -0.023208
      7          1           0        0.410958   -0.895677   -1.156277
      8          1           0        0.235423   -1.614175    0.453244
      9          1           0        1.299090    0.341365    1.318231
     10          1           0        2.739852   -0.876880    0.105740
     11          1           0       -0.315579    1.578597   -0.152599
 ---------------------------------------------------------------------

 SCF Done:  E(RM062X) =  -359.584381516     A.U. after    1 cycles

 The electronic state is 1-A.
 Alpha  occ. eigenvalues --  -19.68614 -19.67303 -19.61856 -14.83013 -10.68398
 Alpha  occ. eigenvalues --  -10.60280  -1.24474  -1.22956  -1.15567  -0.98375
 Alpha  occ. eigenvalues --   -0.82143  -0.70785  -0.66498  -0.63783  -0.60120
 Alpha  occ. eigenvalues --   -0.55979  -0.54095  -0.51664  -0.48819  -0.46972
 Alpha  occ. eigenvalues --   -0.42023  -0.40172  -0.36679  -0.35462
 Alpha virt. eigenvalues --   -0.00794   0.02023   0.02686   0.03873   0.04262
 Alpha virt. eigenvalues --    0.07034   0.07334   0.07895   0.09912   0.10708
 Alpha virt. eigenvalues --    0.12102   0.13325   0.15922   0.18184   0.19055

 Mulliken charges:
               1
     1  O   -0.198943
     2  O   -0.279520
     3  O   -0.377114
     4  N   -0.349006
     5  C   -0.111297
     6  C    0.194913
     7  H    0.184045
     8  H    0.159730
     9  H    0.246602
    10  H    0.247241
    11  H    0.283350
 Sum of Mulliken charges =  -0.00000

 Dipole moment (field-independent basis, Debye):
    X=              3.9633    Y=             -1.1947    Z=              1.2397  Tot=              4.3211
 Quadrupole moment (field-independent basis, Debye-Ang):
   XX=            -45.6355   YY=            -34.6021   ZZ=            -32.5988
   XY=             -5.7079   XZ=              3.4853   YZ=              0.2865

  Exact polarizability:  56.006   1.602  45.544  -1.054  -0.029  34.576
 Approx polarizability:  58.914   3.988  55.254  -2.237  -0.599  43.395

                      1                      2                      3
                      A                      A                      A
 Frequencies --     84.3741               136.3332               232.9675
 Red. masses --      3.9239                 3.5588                 3.8260
 Frc consts  --      0.0165                 0.0390                 0.1223
 IR Inten    --     19.3196                20.8547                 8.4134

                      4                      5                      6
                      A                      A                      A
 Frequencies --    391.4336               434.8579               482.5236
 Red. masses --      2.7003                 1.6972                 3.3006
 Frc consts  --      0.2438                 0.1891                 0.4528
 IR Inten    --     15.0571                93.7580                21.5582

                      7                      8                      9
                      A                      A                      A
 Frequencies --    605.1528               664.3394               728.8565
 Red. masses --      3.6500                 4.4234                 1.0897
 Frc consts  --      0.7875                 1.1502                 0.3411
 IR Inten    --     11.1712                 3.3805                87.5601

                     10                     11                     12
                      A                      A                      A
 Frequencies --    899.9394               915.0758              1005.3426
 Red. masses --      1.8743                 2.3867                 3.6165
 Frc consts  --      0.8944                 1.1775                 2.1536
 IR Inten    --      4.4894                54.8589                22.8985

                     13                     14                     15
                      A                      A                      A
 Frequencies --   1111.0776              1159.1110              1236.9920
 Red. masses --      1.8555                 4.8723                 1.9621
 Frc consts  --      1.3496                 3.8568                 1.7689
 IR Inten    --     14.5072                10.6865                 2.5623

                     16                     17                     18
                      A                      A                      A
 Frequencies --   1275.5863              1340.6564              1403.4039
 Red. masses --      1.2721                 1.3946                 1.8738
 Frc consts  --      1.2196                 1.4768                 2.1745
 IR Inten    --      2.7611                 3.3828               450.9589

                     19                     20                     21
                      A                      A                      A
 Frequencies --   1409.9721              1481.4112              1513.3021
 Red. masses --      1.2554                 1.0907                 1.1634
 Frc consts  --      1.4704                 1.4102                 1.5698
 IR Inten    --     28.2616                 4.0733                20.0940

                     22                     23                     24
                      A                      A                      A
 Frequencies --   1908.6418              3062.5080              3119.4828
 Red. masses --     10.4304                 1.0614                 1.1021
 Frc consts  --     22.3873                 5.8650                 6.3187
 IR Inten    --    399.3645                12.6030                 5.2015

                     25                     26                     27
                      A                      A                      A
 Frequencies --   3512.4938              3712.6560              3783.5797
 Red. masses --      1.0759                 1.0652                 1.0679
 Frc consts  --      7.8210                 8.6508                 9.0072
 IR Inten    --      8.2413               201.8375                16.4198

 - Thermochemistry -
 -------------------
 Temperature   298.150 Kelvin.  Pressure   1.00000 Atm.
 Atom     1 has atomic number  8 and mass  15.99491

 Molecular mass:    91.02694 amu.
 Principal axes and moments of inertia in atomic units:
                           1         2         3
     Eigenvalues --   190.97675 896.234641046.29675
           X            0.99984  -0.01654   0.00694
           Y            0.01647   0.99982   0.00914
           Z           -0.00709  -0.00902   0.99993
 This molecule is an asymmetric top.
 Rotational symmetry number  1.
 Rotational temperatures (Kelvin)      0.45353     0.09664     0.08278
 Rotational constants (GHZ):           9.45006     2.01369     1.72488
 Zero-point vibrational energy     224970.1 (Joules/Mol)
                                   53.76915 (Kcal/Mol)
 Warning -- explicit consideration of   7 degrees of freedom as
           vibrations may cause significant error
 Vibrational temperatures:    121.40   196.15   335.19   563.19   625.66
          (Kelvin)            694.24   870.68   955.84  1048.66  1294.81
                             1316.59  1446.46  1598.59  1667.70  1779.76
                             1835.28  1928.91  2019.19  2028.64  2131.42
                             2177.30  2746.11  4406.27  4488.24  5053.70
                             5341.68  5443.73

 Zero-point correction=                           0.085687 (Hartree/Particle)
 Thermal correction to Energy=                    0.091927
 Thermal correction to Enthalpy=                  0.092872
 Thermal correction to Gibbs Free Energy=         0.055409
 Sum of electronic and zero-point Energies=           -359.498695
 Sum of electronic and thermal Energies=              -359.492454
 Sum of electronic and thermal Enthalpies=            -359.491510
 Sum of electronic and thermal Free Energies=         -359.528973

                     E (Thermal)             CV                S
                      KCal/Mol        Cal/Mol-Kelvin    Cal/Mol-Kelvin
 Total                   57.685             21.198             78.847
 Electronic               0.000              0.000              0.000
 Translational            0.889              2.981             39.438
 Rotational               0.889              2.981             26.685
 Vibrational             55.908             15.236             12.725
 Vibration     1          0.601              1.960              3.786
 Vibration     2          0.614              1.917              2.855
 Vibration     3          0.654              1.790              1.856
 Vibration     4          0.759              1.488              0.995
 Vibration     5          0.795              1.394              0.843
 Vibration     6          0.839              1.289              0.703
 Vibration     7          0.964              1.021              0.441

 Optimization completed.
    -- Stationary point found.
 Normal termination of Gaussian 16 at Thu Feb 28 13:29:03 2019.
