 Gaussian 16, Revision A.03,
 Gaussian 16:  EM64L-G16RevA.03 25-Dec-2016

 ----------------------------------------------
 #p m062x/6-311+g(2df,2p) Opt=(CalcFC,ModRedun)
 ----------------------------------------------

 ----------------------------------------
 Gaussian Input Prepared from Scan Object
 ----------------------------------------
 Symbolic Z-matrix:
 Charge =  0 Multiplicity = 1

 SCF Done:  E(RM062X) =  -359.584381516     A.U. after   13 cycles

  Exact polarizability:   0.000   0.000   0.000   0.000   0.000   0.000
 Approx polarizability:  58.914   3.988  55.254  -2.237  -0.599  43.395

 Optimization completed.
    -- Stationary point found.
 SCF Done:  E(RM062X) =  -359.583679406     A.U. after   11 cycles
 SCF Done:  E(RM062X) =  -359.584126899     A.U. after   11 cycles
 SCF Done:  E(RM062X) =  -359.584129659     A.U. after    9 cycles
 Optimization completed.
 SCF Done:  E(RM062X) =  -359.582944344     A.U. after   11 cycles
 SCF Done:  E(RM062X) =  -359.583409809     A.U. after   11 cycles
 SCF Done:  E(RM062X) =  -359.583412440     A.U. after    8 cycles
 SCF Done:  E(RM062X) =  -359.583412476     A.U. after    7 cycles
 SCF Done:  E(RM062X) =  -359.581851806     A.U. after   11 cycles
 SCF Done:  E(RM062X) =  -359.582347008     A.U. after   10 cycles
 SCF Done:  E(RM062X) =  -359.582888943     A.U. after   11 cycles
 SCF Done:  E(RM062X) =  -359.583406959     A.U. after   10 cycles
 SCF Done:  E(RM062X) =  -359.583412096     A.U. after   10 cycles
 SCF Done:  E(RM062X) =  -359.583658519     A.U. after   11 cycles
 SCF Done:  E(RM062X) =  -359.584126322     A.U. after   11 cycles
 SCF Done:  E(RM062X) =  -359.584129404     A.U. after   10 cycles
 SCF Done:  E(RM062X) =  -359.584129438     A.U. after    8 cycles
    -- Stationary point found.
 SCF Done:  E(RM062X) =  -359.583932405     A.U. after   11 cycles
 SCF Done:  E(RM062X) =  -359.584377090     A.U. after   11 cycles
 SCF Done:  E(RM062X) =  -359.584381498     A.U. after    9 cycles
 Optimization completed.
    -- Stationary point found.

                         Standard orientation:
 ---------------------------------------------------------------------
 Center     Atomic      Atomic             Coordinates (Angstroms)
 Number     Number       Type             X           Y           Z
 ---------------------------------------------------------------------
      1          8           0        2.489664    0.001607   -0.207759
      2          8           0       -1.227366    1.247041   -0.106966
      3          8           0       -2.157262   -0.761680    0.071396
      4          7           0        1.218649    0.303087    0.306378
      5          6           0        0.223897   -0.674618   -0.104411
      6          6           0       -1.180661   -0.083842   -0.023197
      7          1           0        0.410866   -0.895335   -1.156533
      8          1           0        0.235471   -1.614298    0.452789
      9          1           0        1.299178    0.341231    1.318211
     10          1           0        2.739960   -0.876874    0.105842
     11          1           0       -0.315720    1.578682   -0.152669
 ---------------------------------------------------------------------

 The electronic state is 1-A.
 Alpha  occ. eigenvalues --  -19.68613 -19.67304 -19.61857 -14.83013 -10.68398
 Alpha  occ. eigenvalues --  -10.60281  -1.24474  -1.22954  -1.15567  -0.98374
 Alpha  occ. eigenvalues --   -0.82144  -0.70785  -0.66496  -0.63782  -0.60120
 Alpha  occ. eigenvalues --   -0.55979  -0.54095  -0.51662  -0.48819  -0.46972
 Alpha  occ. eigenvalues --   -0.42022  -0.40172  -0.36679  -0.35464
 Alpha virt. eigenvalues --   -0.00794   0.02023   0.02686   0.03873   0.04262
 Alpha virt. eigenvalues --    0.07034   0.07334   0.07895   0.09912   0.10708
 Alpha virt. eigenvalues --    0.12102   0.13324   0.15922   0.18183   0.19055

 Mulliken charges:
               1
     1  O   -0.198945
     2  O   -0.279520
     3  O   -0.377108
     4  N   -0.349025
     5  C   -0.111288
     6  C    0.194921
     7  H    0.184053
     8  H    0.159734
     9  H    0.246592
    10  H    0.247242
    11  H    0.283343
 Sum of Mulliken charges =  -0.00000

 Dipole moment (field-independent basis, Debye):
    X=              3.9629    Y=             -1.1946    Z=              1.2391  Tot=              4.3206
 Quadrupole moment (field-independent basis, Debye-Ang):
   XX=            -45.6360   YY=            -34.6018   ZZ=            -32.5988
   XY=             -5.7086   XZ=              3.4860   YZ=              0.2860

 Normal termination of Gaussian 16 at Thu Feb 28 15:52:52 2019.
