 Gaussian 16, Revision A.03,
 Gaussian 16:  EM64L-G16RevA.03 25-Dec-2016

 ----------------------------------------------------------------------
 #p m062x/6-311+g(2df,2p) opt=(calcfc,verytight,gdiis,maxcycles=900) fr
 eq IOP(2/16=3)
 ----------------------------------------------------------------------

 ------------------------------
 Gaussian input prepared by ASE
 ------------------------------
 Symbolic Z-matrix:
 Charge =  0 Multiplicity = 1

 SCF Done:  E(RM062X) =  -359.539729167     A.U. after   13 cycles
 SCF Done:  E(RM062X) =  -359.564308773     A.U. after   12 cycles
 SCF Done:  E(RM062X) =  -359.567291133     A.U. after   15 cycles
 SCF Done:  E(RM062X) =  -359.576980838     A.U. after   12 cycles
 SCF Done:  E(RM062X) =  -359.574597236     A.U. after   14 cycles
 SCF Done:  E(RM062X) =  -359.579867699     A.U. after   14 cycles
 SCF Done:  E(RM062X) =  -359.572401466     A.U. after   14 cycles
 SCF Done:  E(RM062X) =  -359.584933765     A.U. after   12 cycles
 SCF Done:  E(RM062X) =  -359.586073460     A.U. after   12 cycles
 SCF Done:  E(RM062X) =  -359.586363790     A.U. after   11 cycles
 SCF Done:  E(RM062X) =  -359.587670987     A.U. after    9 cycles
 SCF Done:  E(RM062X) =  -359.587671018     A.U. after    8 cycles
 SCF Done:  E(RM062X) =  -359.587671017     A.U. after    5 cycles
 SCF Done:  E(RM062X) =  -359.587671053     A.U. after    6 cycles
 SCF Done:  E(RM062X) =  -359.587671054     A.U. after    3 cycles
 SCF Done:  E(RM062X) =  -359.587671054     A.U. after    2 cycles
 SCF Done:  E(RM062X) =  -359.587671054     A.U. after    3 cycles
 SCF Done:  E(RM062X) =  -359.587671054     A.U. after    2 cycles
 SCF Done:  E(RM062X) =  -359.587671054     A.U. after    2 cycles
 Optimization completed.
    -- Stationary point found.
 Normal termination of Gaussian 16 at Thu Feb 28 11:47:39 2019.

 ----------------------------------------------------------------------
 #P Geom=AllCheck Guess=TCheck SCRF=Check Test GenChk RM062X/6-311+G(2d
 f,2p) Freq
 ----------------------------------------------------------------------

 Structure from the checkpoint file:  "/scratch/underkoffler.c/gaussian_scratch/Gau-25865.chk"
 ------------------------------
 Gaussian input prepared by ASE
 ------------------------------
 Charge =  0 Multiplicity = 1

                         Standard orientation:
 ---------------------------------------------------------------------
 Center     Atomic      Atomic             Coordinates (Angstroms)
 Number     Number       Type             X           Y           Z
 ---------------------------------------------------------------------
      1          8           0       -1.861549   -0.327529   -0.715034
      2          8           0        0.919251   -1.266936    0.257802
      3          8           0        2.024152    0.517730   -0.464816
      4          7           0       -1.362963    0.072229    0.537372
      5          6           0       -0.173652    0.881323    0.382279
      6          6           0        1.036150    0.032891   -0.002682
      7          1           0        0.049705    1.341592    1.346522
      8          1           0       -0.270715    1.680710   -0.359625
      9          1           0       -2.098044    0.572407    1.024413
     10          1           0       -1.990060    0.464024   -1.255070
     11          1           0        0.020038   -1.435743    0.580954
 ---------------------------------------------------------------------

 SCF Done:  E(RM062X) =  -359.587671054     A.U. after    1 cycles

 The electronic state is 1-A.
 Alpha  occ. eigenvalues --  -19.68618 -19.66823 -19.61334 -14.83097 -10.67851
 Alpha  occ. eigenvalues --  -10.60509  -1.24334  -1.22729  -1.15049  -0.98461
 Alpha  occ. eigenvalues --   -0.82296  -0.70382  -0.67394  -0.61656  -0.59670
 Alpha  occ. eigenvalues --   -0.57919  -0.53348  -0.52993  -0.47079  -0.46681
 Alpha  occ. eigenvalues --   -0.41987  -0.39586  -0.37531  -0.34818
 Alpha virt. eigenvalues --   -0.01010   0.01916   0.03590   0.03669   0.05041
 Alpha virt. eigenvalues --    0.07316   0.07353   0.07905   0.08220   0.10239
 Alpha virt. eigenvalues --    0.12515   0.13488   0.15392   0.17938   0.19065

 Mulliken charges:
               1
     1  O   -0.207044
     2  O   -0.283217
     3  O   -0.383312
     4  N   -0.302747
     5  C   -0.137559
     6  C    0.224254
     7  H    0.164393
     8  H    0.166169
     9  H    0.233050
    10  H    0.239653
    11  H    0.286361
 Sum of Mulliken charges =  -0.00000

 Dipole moment (field-independent basis, Debye):
    X=             -4.4330    Y=              2.5368    Z=              1.5346  Tot=              5.3331
 Quadrupole moment (field-independent basis, Debye-Ang):
   XX=            -41.5032   YY=            -34.7315   ZZ=            -32.6830
   XY=             -4.7195   XZ=              1.8048   YZ=             -0.1625

  Exact polarizability:  50.418   2.385  44.261  -2.098  -1.305  40.072
 Approx polarizability:  54.637   4.744  53.420  -3.301  -2.465  49.497

                      1                      2                      3
                      A                      A                      A
 Frequencies --     87.8573               129.5699               299.0988
 Red. masses --      5.3069                 5.1270                 2.8218
 Frc consts  --      0.0241                 0.0507                 0.1487
 IR Inten    --     11.3584                 3.3964                62.3822

                      4                      5                      6
                      A                      A                      A
 Frequencies --    408.5640               417.0017               551.7080
 Red. masses --      1.6448                 1.7883                 5.5701
 Frc consts  --      0.1618                 0.1832                 0.9989
 IR Inten    --     29.9555                62.6319                 8.6638

                      7                      8                      9
                      A                      A                      A
 Frequencies --    583.6450               664.0718               700.3439
 Red. masses --      3.1990                 2.5519                 1.2429
 Frc consts  --      0.6420                 0.6630                 0.3592
 IR Inten    --     22.4314                11.7506                62.8853

                     10                     11                     12
                      A                      A                      A
 Frequencies --    855.0507               914.6335               988.6045
 Red. masses --      2.8670                 4.0627                 1.7338
 Frc consts  --      1.2350                 2.0024                 0.9984
 IR Inten    --      2.2538                58.3516                33.8906

                     13                     14                     15
                      A                      A                      A
 Frequencies --   1073.2625              1164.9669              1233.9902
 Red. masses --      2.0875                 4.8251                 1.4883
 Frc consts  --      1.4167                 3.8582                 1.3353
 IR Inten    --     19.1217                14.2620                 1.3255

                     16                     17                     18
                      A                      A                      A
 Frequencies --   1268.5004              1365.8046              1397.8583
 Red. masses --      1.3630                 1.5046                 1.7941
 Frc consts  --      1.2922                 1.6537                 2.0654
 IR Inten    --      4.9846                 7.7814               355.0279

                     19                     20                     21
                      A                      A                      A
 Frequencies --   1418.2369              1466.9752              1496.0813
 Red. masses --      1.2992                 1.1264                 1.2148
 Frc consts  --      1.5396                 1.4282                 1.6020
 IR Inten    --     97.1806                 3.0868                27.6982

                     22                     23                     24
                      A                      A                      A
 Frequencies --   1905.1892              3043.6430              3114.8463
 Red. masses --     10.4665                 1.0660                 1.0969
 Frc consts  --     22.3834                 5.8182                 6.2703
 IR Inten    --    376.2507                14.4651                 2.9307

                     25                     26                     27
                      A                      A                      A
 Frequencies --   3537.3540              3733.3367              3768.1380
 Red. masses --      1.0770                 1.0651                 1.0675
 Frc consts  --      7.9398                 8.7465                 8.9308
 IR Inten    --      9.3503               177.6563                14.8889

 - Thermochemistry -
 -------------------
 Temperature   298.150 Kelvin.  Pressure   1.00000 Atm.
 Atom     1 has atomic number  8 and mass  15.99491

 Molecular mass:    91.02694 amu.
 Principal axes and moments of inertia in atomic units:
                           1         2         3
     Eigenvalues --   255.90122 733.87723 822.58062
           X            0.99980  -0.01978   0.00266
           Y            0.01973   0.99968   0.01599
           Z           -0.00297  -0.01593   0.99987
 This molecule is an asymmetric top.
 Rotational symmetry number  1.
 Rotational temperatures (Kelvin)      0.33847     0.11802     0.10530
 Rotational constants (GHZ):           7.05249     2.45919     2.19400
 Zero-point vibrational energy     224828.2 (Joules/Mol)
                                   53.73522 (Kcal/Mol)
 Warning -- explicit consideration of   7 degrees of freedom as
           vibrations may cause significant error
 Vibrational temperatures:    126.41   186.42   430.34   587.83   599.97
          (Kelvin)            793.78   839.73   955.45  1007.64  1230.23
                             1315.95  1422.38  1544.19  1676.13  1775.44
                             1825.09  1965.09  2011.21  2040.53  2110.65
                             2152.53  2741.14  4379.12  4481.57  5089.46
                             5371.44  5421.51

 Zero-point correction=                           0.085633 (Hartree/Particle)
 Thermal correction to Energy=                    0.091779
 Thermal correction to Enthalpy=                  0.092723
 Thermal correction to Gibbs Free Energy=         0.055553
 Sum of electronic and zero-point Energies=           -359.502039
 Sum of electronic and thermal Energies=              -359.495892
 Sum of electronic and thermal Enthalpies=            -359.494948
 Sum of electronic and thermal Free Energies=         -359.532118

                     E (Thermal)             CV                S
                      KCal/Mol        Cal/Mol-Kelvin    Cal/Mol-Kelvin
 Total                   57.592             21.151             78.232
 Electronic               0.000              0.000              0.000
 Translational            0.889              2.981             39.438
 Rotational               0.889              2.981             26.538
 Vibrational             55.815             15.190             12.256
 Vibration     1          0.601              1.958              3.707
 Vibration     2          0.612              1.924              2.952
 Vibration     3          0.692              1.675              1.422
 Vibration     4          0.773              1.452              0.932
 Vibration     5          0.780              1.433              0.902
 Vibration     6          0.907              1.136              0.541
 Vibration     7          0.941              1.067              0.479

                           ! Non-Optimized Parameters !
 Normal termination of Gaussian 16 at Thu Feb 28 12:26:04 2019.
