 Gaussian 16, Revision A.03,
 Gaussian 16:  EM64L-G16RevA.03 25-Dec-2016

 --------------------------------------------------------------------
 #p m062x/6-311+g(2df,2p) opt=(calcfc,maxcycle=1000) freq iop(7/33=1)
 --------------------------------------------------------------------

 ------------------------------
 Gaussian input prepared by ASE
 ------------------------------
 Symbolic Z-matrix:
 Charge =  0 Multiplicity = 1

 SCF Done:  E(RM062X) =  -79.7980742597     A.U. after    9 cycles
 SCF Done:  E(RM062X) =  -79.8016444176     A.U. after    9 cycles
 SCF Done:  E(RM062X) =  -79.8022454600     A.U. after    8 cycles
 SCF Done:  E(RM062X) =  -79.8022667544     A.U. after    7 cycles
 SCF Done:  E(RM062X) =  -79.8022689607     A.U. after    6 cycles
 Optimization completed.
    -- Stationary point found.
 Normal termination of Gaussian 16 at Tue Feb 26 15:02:29 2019.

 ----------------------------------------------------------------------
 #P Geom=AllCheck Guess=TCheck SCRF=Check Test GenChk RM062X/6-311+G(2d
 f,2p) Freq
 ----------------------------------------------------------------------

 Structure from the checkpoint file:  "/scratch/underkoffler.c/gaussian_scratch/Gau-30672.chk"
 ------------------------------
 Gaussian input prepared by ASE
 ------------------------------
 Charge =  0 Multiplicity = 1

                         Standard orientation:
 ---------------------------------------------------------------------
 Center     Atomic      Atomic             Coordinates (Angstroms)
 Number     Number       Type             X           Y           Z
 ---------------------------------------------------------------------
      1          6           0        0.762356   -0.000007    0.000001
      2          6           0       -0.762356    0.000001    0.000002
      3          1           0        1.156946    0.612746    0.809802
      4          1           0        1.156927    0.395012   -0.935511
      5          1           0        1.157009   -1.007692    0.125683
      6          1           0       -1.156971   -0.613348   -0.809318
      7          1           0       -1.156964    1.007568   -0.126501
      8          1           0       -1.156943   -0.394249    0.935830
 ---------------------------------------------------------------------

 SCF Done:  E(RM062X) =  -79.8022689607     A.U. after    1 cycles

 The electronic state is 1-A.
 Alpha  occ. eigenvalues --  -10.51991 -10.51953  -0.84961  -0.70115  -0.50350
 Alpha  occ. eigenvalues --   -0.50350  -0.42767  -0.40354  -0.40353
 Alpha virt. eigenvalues --    0.02086   0.03914   0.05384   0.05384   0.08756
 Alpha virt. eigenvalues --    0.08756   0.08899   0.13841   0.17831   0.17832
 Alpha virt. eigenvalues --    0.20688   0.20688   0.23257   0.26369   0.28633

 Mulliken charges:
               1
     1  C   -0.356010
     2  C   -0.356020
     3  H    0.118671
     4  H    0.118675
     5  H    0.118665
     6  H    0.118673
     7  H    0.118673
     8  H    0.118673
 Sum of Mulliken charges =  -0.00000

 Dipole moment (field-independent basis, Debye):
    X=             -0.0000    Y=              0.0000    Z=             -0.0000  Tot=              0.0000
 Quadrupole moment (field-independent basis, Debye-Ang):
   XX=            -15.6067   YY=            -14.9521   ZZ=            -14.9524
   XY=             -0.0000   XZ=              0.0000   YZ=             -0.0000

  Exact polarizability:  29.101  -0.017  25.727   0.005   0.001  25.699
 Approx polarizability:  29.483  -0.000  29.401   0.000   0.000  29.401

                      1                      2                      3
                      A                      A                      A
 Frequencies --    309.6522               823.3832               824.7444
 Red. masses --      1.0078                 1.0582                 1.0583
 Frc consts  --      0.0569                 0.4227                 0.4241
 IR Inten    --      0.0001                 3.7241                 3.7567

                      4                      5                      6
                      A                      A                      A
 Frequencies --   1017.7794              1222.4472              1222.8373
 Red. masses --      3.1714                 1.4667                 1.4667
 Frc consts  --      1.9356                 1.2914                 1.2922
 IR Inten    --      0.0000                 0.0000                 0.0000

                      7                      8                      9
                      A                      A                      A
 Frequencies --   1409.7972              1426.9606              1510.1158
 Red. masses --      1.1984                 1.2693                 1.0178
 Frc consts  --      1.4034                 1.5228                 1.3675
 IR Inten    --      1.8459                 0.0000                 0.0000

                     10                     11                     12
                      A                      A                      A
 Frequencies --   1510.6891              1512.0957              1512.8332
 Red. masses --      1.0180                 1.0614                 1.0615
 Frc consts  --      1.3688                 1.4299                 1.4314
 IR Inten    --      0.0000                10.0550                10.0069

                     13                     14                     15
                      A                      A                      A
 Frequencies --   3066.9258              3069.1268              3121.1048
 Red. masses --      1.0366                 1.0340                 1.1020
 Frc consts  --      5.7449                 5.7386                 6.3247
 IR Inten    --      0.0357                47.8210                 0.0003

                     16                     17                     18
                      A                      A                      A
 Frequencies --   3122.5106              3144.1828              3145.6010
 Red. masses --      1.1020                 1.1029                 1.1029
 Frc consts  --      6.3306                 6.4238                 6.4297
 IR Inten    --      0.0007                47.3085                47.4826

 - Thermochemistry -
 -------------------
 Temperature   298.150 Kelvin.  Pressure   1.00000 Atm.
 Atom     1 has atomic number  6 and mass  12.00000

 Molecular mass:    30.04695 amu.
 Principal axes and moments of inertia in atomic units:
                           1         2         3
     Eigenvalues --    22.26810  89.84942  89.85023
           X            1.00000   0.00000   0.00000
           Y           -0.00000   1.00000   0.00000
           Z           -0.00000  -0.00000   1.00000
 This molecule is an asymmetric top.
 Rotational symmetry number  1.
 Rotational temperatures (Kelvin)      3.88960     0.96399     0.96398
 Rotational constants (GHZ):          81.04604    20.08629    20.08611
 Zero-point vibrational energy     197221.1 (Joules/Mol)
                                   47.13697 (Kcal/Mol)
 Warning -- explicit consideration of   1 degrees of freedom as
           vibrations may cause significant error
 Vibrational temperatures:    445.52  1184.66  1186.62  1464.36  1758.83
          (Kelvin)           1759.39  2028.38  2053.08  2172.72  2173.54
                             2175.57  2176.63  4412.62  4415.79  4490.57
                             4492.60  4523.78  4525.82

 Zero-point correction=                           0.075118 (Hartree/Particle)
 Thermal correction to Energy=                    0.078599
 Thermal correction to Enthalpy=                  0.079544
 Thermal correction to Gibbs Free Energy=         0.052014
 Sum of electronic and zero-point Energies=            -79.727151
 Sum of electronic and thermal Energies=               -79.723670
 Sum of electronic and thermal Enthalpies=             -79.722725
 Sum of electronic and thermal Free Energies=          -79.750255

                     E (Thermal)             CV                S
                      KCal/Mol        Cal/Mol-Kelvin    Cal/Mol-Kelvin
 Total                   49.322             10.067             57.941
 Electronic               0.000              0.000              0.000
 Translational            0.889              2.981             36.134
 Rotational               0.889              2.981             19.825
 Vibrational             47.544              4.106              1.982
 Vibration     1          0.699              1.655              1.364

 Optimization completed.
    -- Stationary point found.
 Normal termination of Gaussian 16 at Tue Feb 26 15:08:04 2019.
