 Gaussian 16, Revision A.03,
 Gaussian 16:  EM64L-G16RevA.03 25-Dec-2016

 ----------------------------------------------
 #p m062x/6-311+g(2df,2p) Opt=(CalcFC,ModRedun)
 ----------------------------------------------

 ----------------------------------------
 Gaussian Input Prepared from Scan Object
 ----------------------------------------
 Symbolic Z-matrix:
 Charge =  0 Multiplicity = 1

 SCF Done:  E(RM062X) =  -79.8022689607     A.U. after    8 cycles

  Exact polarizability:   0.000   0.000   0.000   0.000   0.000   0.000
 Approx polarizability:  29.483  -0.000  29.401  -0.000  -0.000  29.401

 Optimization completed.
    -- Stationary point found.
 SCF Done:  E(RM062X) =  -79.8009520682     A.U. after    8 cycles
 SCF Done:  E(RM062X) =  -79.8019833432     A.U. after    8 cycles
 SCF Done:  E(RM062X) =  -79.8019999738     A.U. after    7 cycles
 Optimization completed.
 SCF Done:  E(RM062X) =  -79.8001747429     A.U. after    8 cycles
 SCF Done:  E(RM062X) =  -79.8012395862     A.U. after    8 cycles
 SCF Done:  E(RM062X) =  -79.8012609005     A.U. after    7 cycles
 SCF Done:  E(RM062X) =  -79.7990464657     A.U. after    8 cycles
 SCF Done:  E(RM062X) =  -79.8001806876     A.U. after    8 cycles
 SCF Done:  E(RM062X) =  -79.8002122735     A.U. after    7 cycles
 SCF Done:  E(RM062X) =  -79.8002200353     A.U. after    7 cycles
 SCF Done:  E(RM062X) =  -79.8000446630     A.U. after    8 cycles
 SCF Done:  E(RM062X) =  -79.8012542977     A.U. after    8 cycles
 SCF Done:  E(RM062X) =  -79.8012682273     A.U. after    7 cycles
 SCF Done:  E(RM062X) =  -79.8008848626     A.U. after    8 cycles
 SCF Done:  E(RM062X) =  -79.8019922519     A.U. after    8 cycles
 SCF Done:  E(RM062X) =  -79.8020051675     A.U. after    7 cycles
    -- Stationary point found.
 SCF Done:  E(RM062X) =  -79.8012080592     A.U. after    8 cycles
 SCF Done:  E(RM062X) =  -79.8022559796     A.U. after    8 cycles
 SCF Done:  E(RM062X) =  -79.8022677549     A.U. after    7 cycles
 Optimization completed.
    -- Stationary point found.

                         Standard orientation:
 ---------------------------------------------------------------------
 Center     Atomic      Atomic             Coordinates (Angstroms)
 Number     Number       Type             X           Y           Z
 ---------------------------------------------------------------------
      1          6           0       -0.762305   -0.000009    0.000006
      2          6           0        0.762306   -0.000016   -0.000027
      3          1           0       -1.156754   -0.836727    0.575524
      4          1           0       -1.157027   -0.079942   -1.012293
      5          1           0       -1.156837    0.916741    0.436850
      6          1           0        1.156932    0.837121   -0.574827
      7          1           0        1.156834   -0.916456   -0.437511
      8          1           0        1.156846    0.079410    1.012380
 ---------------------------------------------------------------------

 The electronic state is 1-A.
 Alpha  occ. eigenvalues --  -10.51990 -10.51953  -0.84963  -0.70114  -0.50353
 Alpha  occ. eigenvalues --   -0.50351  -0.42768  -0.40353  -0.40352
 Alpha virt. eigenvalues --    0.02086   0.03915   0.05383   0.05384   0.08756
 Alpha virt. eigenvalues --    0.08756   0.08899   0.13841   0.17831   0.17831
 Alpha virt. eigenvalues --    0.20688   0.20689   0.23256   0.26371   0.28634

 Mulliken charges:
               1
     1  C   -0.356002
     2  C   -0.356002
     3  H    0.118670
     4  H    0.118664
     5  H    0.118668
     6  H    0.118665
     7  H    0.118666
     8  H    0.118672
 Sum of Mulliken charges =  -0.00000

 Dipole moment (field-independent basis, Debye):
    X=             -0.0000    Y=              0.0001    Z=              0.0000  Tot=              0.0001
 Quadrupole moment (field-independent basis, Debye-Ang):
   XX=            -15.6074   YY=            -14.9518   ZZ=            -14.9523
   XY=              0.0000   XZ=              0.0002   YZ=              0.0000

 Normal termination of Gaussian 16 at Tue Feb 26 15:54:18 2019.
