 Gaussian 16, Revision A.03,
 Gaussian 16:  EM64L-G16RevA.03 25-Dec-2016

 ----------------------------------------------
 #p m062x/6-311+g(2df,2p) Opt=(CalcFC,ModRedun)
 ----------------------------------------------

 ----------------------------------------
 Gaussian Input Prepared from Scan Object
 ----------------------------------------
 Symbolic Z-matrix:
 Charge =  0 Multiplicity = 1

 SCF Done:  E(RM062X) =  -307.674672807     A.U. after   12 cycles

  Exact polarizability:   0.000   0.000   0.000   0.000   0.000   0.000
 Approx polarizability:  63.434  -0.759  67.388  -1.594   3.581  57.018

 Optimization completed.
    -- Stationary point found.
 SCF Done:  E(RM062X) =  -307.673460450     A.U. after   11 cycles
 SCF Done:  E(RM062X) =  -307.674646984     A.U. after   11 cycles
 SCF Done:  E(RM062X) =  -307.674656582     A.U. after    9 cycles
 Optimization completed.
 SCF Done:  E(RM062X) =  -307.673413248     A.U. after   11 cycles
 SCF Done:  E(RM062X) =  -307.674606547     A.U. after   11 cycles
 SCF Done:  E(RM062X) =  -307.674617175     A.U. after    9 cycles
 SCF Done:  E(RM062X) =  -307.673332592     A.U. after   12 cycles
 SCF Done:  E(RM062X) =  -307.674541548     A.U. after   11 cycles
 SCF Done:  E(RM062X) =  -307.674556390     A.U. after   10 cycles
 SCF Done:  E(RM062X) =  -307.674604021     A.U. after   11 cycles
 SCF Done:  E(RM062X) =  -307.674611094     A.U. after    8 cycles
 SCF Done:  E(RM062X) =  -307.674611205     A.U. after    6 cycles
 SCF Done:  E(RM062X) =  -307.673429702     A.U. after   11 cycles
 SCF Done:  E(RM062X) =  -307.674650628     A.U. after   11 cycles
 SCF Done:  E(RM062X) =  -307.674656890     A.U. after    9 cycles
    -- Stationary point found.
 SCF Done:  E(RM062X) =  -307.673467217     A.U. after   11 cycles
 SCF Done:  E(RM062X) =  -307.674662853     A.U. after   11 cycles
 SCF Done:  E(RM062X) =  -307.674672756     A.U. after    8 cycles
 SCF Done:  E(RM062X) =  -307.674672806     A.U. after    6 cycles
 Optimization completed.
    -- Stationary point found.

                         Standard orientation:
 ---------------------------------------------------------------------
 Center     Atomic      Atomic             Coordinates (Angstroms)
 Number     Number       Type             X           Y           Z
 ---------------------------------------------------------------------
      1          8           0       -0.774039   -0.667244   -0.293254
      2          8           0       -0.526945    1.468364    0.319853
      3          6           0        1.373978    0.264271   -0.543714
      4          6           0        2.111114   -0.652032    0.435852
      5          6           0       -2.138489   -0.588665    0.110415
      6          6           0       -0.059726    0.457652   -0.128041
      7          1           0        1.834882    1.247933   -0.580958
      8          1           0        1.389175   -0.171127   -1.542895
      9          1           0        2.095411   -0.233354    1.441427
     10          1           0        3.150061   -0.769793    0.134372
     11          1           0        1.647755   -1.636240    0.465164
     12          1           0       -2.206721   -0.343291    1.168450
     13          1           0       -2.564997   -1.567092   -0.083461
     14          1           0       -2.658956    0.176642   -0.461972
 ---------------------------------------------------------------------

 The electronic state is 1-A.
 Alpha  occ. eigenvalues --  -19.66928 -19.61175 -10.66755 -10.58936 -10.55001
 Alpha  occ. eigenvalues --  -10.53737  -1.23831  -1.14251  -0.89702  -0.81973
 Alpha  occ. eigenvalues --   -0.73867  -0.65201  -0.58787  -0.57069  -0.56708
 Alpha  occ. eigenvalues --   -0.52064  -0.49901  -0.48171  -0.45419  -0.43025
 Alpha  occ. eigenvalues --   -0.42923  -0.42238  -0.37817  -0.35138
 Alpha virt. eigenvalues --    0.01147   0.02218   0.03233   0.04229   0.04539
 Alpha virt. eigenvalues --    0.05576   0.06027   0.06514   0.08184   0.08530
 Alpha virt. eigenvalues --    0.09165   0.10103   0.10850   0.12537   0.12736

 Mulliken charges:
               1
     1  O   -0.158056
     2  O   -0.386854
     3  C   -0.367826
     4  C   -0.393657
     5  C   -0.193105
     6  C    0.298659
     7  H    0.169284
     8  H    0.173276
     9  H    0.151326
    10  H    0.138182
    11  H    0.153153
    12  H    0.141208
    13  H    0.133576
    14  H    0.140834
 Sum of Mulliken charges =  -0.00000

 Dipole moment (field-independent basis, Debye):
    X=              0.3416    Y=             -1.8591    Z=             -0.4968  Tot=              1.9544
 Quadrupole moment (field-independent basis, Debye-Ang):
   XX=            -31.0877   YY=            -41.6369   ZZ=            -36.4773
   XY=              2.5374   XZ=             -0.4330   YZ=             -1.8324

 Normal termination of Gaussian 16 at Mon Mar 11 01:11:36 2019.
