 Gaussian 16, Revision A.03,
 Gaussian 16:  EM64L-G16RevA.03 25-Dec-2016

 ----------------------------------------------
 #p m062x/6-311+g(2df,2p) Opt=(CalcFC,ModRedun)
 ----------------------------------------------

 ----------------------------------------
 Gaussian Input Prepared from Scan Object
 ----------------------------------------
 Symbolic Z-matrix:
 Charge =  0 Multiplicity = 1

 SCF Done:  E(RM062X) =  -307.674672807     A.U. after   12 cycles

  Exact polarizability:   0.000   0.000   0.000   0.000   0.000   0.000
 Approx polarizability:  63.434  -0.759  67.388  -1.594   3.581  57.018

 Optimization completed.
    -- Stationary point found.
 SCF Done:  E(RM062X) =  -307.673527531     A.U. after   10 cycles
 SCF Done:  E(RM062X) =  -307.674503242     A.U. after   10 cycles
 SCF Done:  E(RM062X) =  -307.674506296     A.U. after    8 cycles
 Optimization completed.
 SCF Done:  E(RM062X) =  -307.673058849     A.U. after   10 cycles
 SCF Done:  E(RM062X) =  -307.674080997     A.U. after    9 cycles
 SCF Done:  E(RM062X) =  -307.674084406     A.U. after    9 cycles
 SCF Done:  E(RM062X) =  -307.672472021     A.U. after   11 cycles
 SCF Done:  E(RM062X) =  -307.673561402     A.U. after   10 cycles
 SCF Done:  E(RM062X) =  -307.673563523     A.U. after    9 cycles
 SCF Done:  E(RM062X) =  -307.674085285     A.U. after   10 cycles
 SCF Done:  E(RM062X) =  -307.674087382     A.U. after    9 cycles
 SCF Done:  E(RM062X) =  -307.673464420     A.U. after   11 cycles
 SCF Done:  E(RM062X) =  -307.674507778     A.U. after    9 cycles
 SCF Done:  E(RM062X) =  -307.674509988     A.U. after    8 cycles
 SCF Done:  E(RM062X) =  -307.674509998     A.U. after    7 cycles
    -- Stationary point found.
 SCF Done:  E(RM062X) =  -307.673685448     A.U. after   11 cycles
 SCF Done:  E(RM062X) =  -307.674671066     A.U. after   10 cycles
 SCF Done:  E(RM062X) =  -307.674672789     A.U. after    9 cycles
 SCF Done:  E(RM062X) =  -307.674672807     A.U. after    7 cycles
 Optimization completed.
    -- Stationary point found.

                         Standard orientation:
 ---------------------------------------------------------------------
 Center     Atomic      Atomic             Coordinates (Angstroms)
 Number     Number       Type             X           Y           Z
 ---------------------------------------------------------------------
      1          8           0       -0.774070   -0.667251   -0.293256
      2          8           0       -0.526929    1.468352    0.319838
      3          6           0        1.373975    0.264246   -0.543726
      4          6           0        2.111156   -0.652002    0.435859
      5          6           0       -2.138511   -0.588641    0.110434
      6          6           0       -0.059726    0.457624   -0.128036
      7          1           0        1.834813    1.247933   -0.581022
      8          1           0        1.389174   -0.171209   -1.542884
      9          1           0        2.095436   -0.233303    1.441425
     10          1           0        3.150108   -0.769727    0.134383
     11          1           0        1.647840   -1.636230    0.465187
     12          1           0       -2.206733   -0.343263    1.168467
     13          1           0       -2.565046   -1.567056   -0.083444
     14          1           0       -2.658966    0.176678   -0.461954
 ---------------------------------------------------------------------

 The electronic state is 1-A.
 Alpha  occ. eigenvalues --  -19.66928 -19.61175 -10.66755 -10.58936 -10.55001
 Alpha  occ. eigenvalues --  -10.53737  -1.23831  -1.14251  -0.89702  -0.81973
 Alpha  occ. eigenvalues --   -0.73867  -0.65201  -0.58787  -0.57068  -0.56708
 Alpha  occ. eigenvalues --   -0.52064  -0.49901  -0.48171  -0.45419  -0.43025
 Alpha  occ. eigenvalues --   -0.42923  -0.42238  -0.37817  -0.35138
 Alpha virt. eigenvalues --    0.01147   0.02218   0.03233   0.04229   0.04539
 Alpha virt. eigenvalues --    0.05576   0.06027   0.06514   0.08184   0.08530
 Alpha virt. eigenvalues --    0.09164   0.10103   0.10850   0.12537   0.12736

 Mulliken charges:
               1
     1  O   -0.158058
     2  O   -0.386854
     3  C   -0.367823
     4  C   -0.393651
     5  C   -0.193103
     6  C    0.298653
     7  H    0.169284
     8  H    0.173275
     9  H    0.151325
    10  H    0.138182
    11  H    0.153152
    12  H    0.141209
    13  H    0.133576
    14  H    0.140834
 Sum of Mulliken charges =  -0.00000

 Dipole moment (field-independent basis, Debye):
    X=              0.3416    Y=             -1.8591    Z=             -0.4967  Tot=              1.9544
 Quadrupole moment (field-independent basis, Debye-Ang):
   XX=            -31.0876   YY=            -41.6368   ZZ=            -36.4773
   XY=              2.5372   XZ=             -0.4331   YZ=             -1.8323

 Normal termination of Gaussian 16 at Mon Mar 11 01:12:42 2019.
