 Gaussian 16, Revision A.03,
 Gaussian 16:  EM64L-G16RevA.03 25-Dec-2016

 ----------------------------------------------
 #p m062x/6-311+g(2df,2p) Opt=(CalcFC,ModRedun)
 ----------------------------------------------

 ----------------------------------------
 Gaussian Input Prepared from Scan Object
 ----------------------------------------
 Symbolic Z-matrix:
 Charge =  0 Multiplicity = 2

 SCF Done:  E(UM062X) =  -307.020178002     A.U. after   15 cycles

  Exact polarizability:   0.000   0.000   0.000   0.000   0.000   0.000
 Approx polarizability:  67.686   0.989  68.118  -0.000  -0.000  51.380

 Optimization completed.
    -- Stationary point found.
 SCF Done:  E(UM062X) =  -307.019245083     A.U. after   12 cycles
 SCF Done:  E(UM062X) =  -307.020103257     A.U. after   12 cycles
 SCF Done:  E(UM062X) =  -307.020123228     A.U. after   11 cycles
 Optimization completed.
 SCF Done:  E(UM062X) =  -307.019099375     A.U. after   12 cycles
 SCF Done:  E(UM062X) =  -307.019968194     A.U. after   12 cycles
 SCF Done:  E(UM062X) =  -307.019984684     A.U. after   11 cycles
 SCF Done:  E(UM062X) =  -307.018924322     A.U. after   12 cycles
 SCF Done:  E(UM062X) =  -307.019803476     A.U. after   12 cycles
 SCF Done:  E(UM062X) =  -307.019815392     A.U. after   11 cycles
 SCF Done:  E(UM062X) =  -307.019984602     A.U. after   11 cycles
 SCF Done:  E(UM062X) =  -307.019984762     A.U. after    8 cycles
 SCF Done:  E(UM062X) =  -307.019244406     A.U. after   12 cycles
 SCF Done:  E(UM062X) =  -307.020097603     A.U. after   12 cycles
 SCF Done:  E(UM062X) =  -307.020123078     A.U. after   12 cycles
 SCF Done:  E(UM062X) =  -307.020123318     A.U. after    7 cycles
    -- Stationary point found.
 SCF Done:  E(UM062X) =  -307.019301722     A.U. after   12 cycles
 SCF Done:  E(UM062X) =  -307.020156980     A.U. after   12 cycles
 SCF Done:  E(UM062X) =  -307.020177872     A.U. after   11 cycles
 SCF Done:  E(UM062X) =  -307.020177999     A.U. after    7 cycles
 Optimization completed.
    -- Stationary point found.

                         Standard orientation:
 ---------------------------------------------------------------------
 Center     Atomic      Atomic             Coordinates (Angstroms)
 Number     Number       Type             X           Y           Z
 ---------------------------------------------------------------------
      1          8           0        1.110145   -0.722103    0.000006
      2          8           0        0.106340    1.291302   -0.000015
      3          6           0       -2.518303    0.015803   -0.000002
      4          6           0        2.362001   -0.046578    0.000003
      5          6           0       -1.208823   -0.668890    0.000026
      6          6           0        0.027565    0.082965   -0.000000
      7          1           0       -3.107759   -0.270106    0.875151
      8          1           0       -2.383704    1.094480    0.000161
      9          1           0       -3.107652   -0.269955   -0.875276
     10          1           0        3.120587   -0.822254    0.000016
     11          1           0        2.456323    0.580623    0.884811
     12          1           0        2.456332    0.580601   -0.884820
     13          1           0       -1.140646   -1.746781   -0.000125
 ---------------------------------------------------------------------

 The electronic state is 2-A.
 Alpha  occ. eigenvalues --  -19.66487 -19.60905 -10.66400 -10.58610 -10.57731
 Alpha  occ. eigenvalues --  -10.54218  -1.23333  -1.13963  -0.90351  -0.82759
 Alpha  occ. eigenvalues --   -0.74009  -0.64122  -0.60020  -0.57210  -0.56148
 Alpha  occ. eigenvalues --   -0.51486  -0.50645  -0.47114  -0.46819  -0.44866
 Alpha  occ. eigenvalues --   -0.43142  -0.38327  -0.36232  -0.28844
 Alpha virt. eigenvalues --    0.01207   0.02485   0.03642   0.04684   0.05134
 Alpha virt. eigenvalues --    0.05745   0.06603   0.08026   0.08104   0.09184
 Alpha virt. eigenvalues --    0.10358   0.10394   0.11556   0.12048   0.14755

  Beta  occ. eigenvalues --  -19.66409 -19.60603 -10.66479 -10.58613 -10.57174
  Beta  occ. eigenvalues --  -10.54268  -1.22988  -1.13269  -0.88207  -0.82565
  Beta  occ. eigenvalues --   -0.72728  -0.63674  -0.59024  -0.56293  -0.55652
  Beta  occ. eigenvalues --   -0.51003  -0.48601  -0.46395  -0.45557  -0.44647
  Beta  occ. eigenvalues --   -0.42936  -0.36599  -0.35536
  Beta virt. eigenvalues --   -0.06728   0.00969   0.02521   0.03688   0.04366
  Beta virt. eigenvalues --    0.05050   0.05753   0.06513   0.08199   0.08498
  Beta virt. eigenvalues --    0.08546   0.09798   0.10621   0.12134   0.13146

 Mulliken charges and spin densities:
               1          2
     1  O   -0.171745   0.025319
     2  O   -0.425408   0.158895
     3  C   -0.472202  -0.032125
     4  C   -0.182155  -0.003525
     5  C   -0.024095   0.871210
     6  C    0.242470  -0.057690
     7  H    0.133023   0.034536
     8  H    0.167172   0.002855
     9  H    0.133022   0.034541
    10  H    0.131166   0.000036
    11  H    0.137988   0.001907
    12  H    0.137989   0.001907
    13  H    0.192774  -0.037868
 Sum of Mulliken charges =  -0.00000   1.00000

 Dipole moment (field-independent basis, Debye):
    X=             -0.3512    Y=             -1.7428    Z=             -0.0001  Tot=              1.7778
 Quadrupole moment (field-independent basis, Debye-Ang):
   XX=            -28.0439   YY=            -40.3359   ZZ=            -36.2278
   XY=              1.3621   XZ=              0.0001   YZ=              0.0004

 Normal termination of Gaussian 16 at Mon Mar 11 21:23:02 2019.
