 Gaussian 16, Revision A.03,
 Gaussian 16:  EM64L-G16RevA.03 25-Dec-2016

 ----------------------------------------------------------------------
 #p m062x/6-311+g(2df,2p) opt=(calcfc,verytight,gdiis,maxcycles=900) fr
 eq iop(7/33=1,2/16=3)
 ----------------------------------------------------------------------

 ------------------------------
 Gaussian input prepared by ASE
 ------------------------------
 Symbolic Z-matrix:
 Charge =  0 Multiplicity = 2

 SCF Done:  E(UM062X) =  -307.020178002     A.U. after   15 cycles
 SCF Done:  E(UM062X) =  -307.020178002     A.U. after    2 cycles
 SCF Done:  E(UM062X) =  -307.020178002     A.U. after    2 cycles
 SCF Done:  E(UM062X) =  -307.020178002     A.U. after    2 cycles
 Optimization completed.
    -- Stationary point found.
 Normal termination of Gaussian 16 at Mon Mar 11 15:51:14 2019.

 ----------------------------------------------------------------------
 #P Geom=AllCheck Guess=TCheck SCRF=Check Test GenChk UM062X/6-311+G(2d
 f,2p) Freq
 ----------------------------------------------------------------------

 Structure from the checkpoint file:  "/scratch/underkoffler.c/gaussian_scratch/Gau-6858.chk"
 ------------------------------
 Gaussian input prepared by ASE
 ------------------------------
 Charge =  0 Multiplicity = 2

                         Standard orientation:
 ---------------------------------------------------------------------
 Center     Atomic      Atomic             Coordinates (Angstroms)
 Number     Number       Type             X           Y           Z
 ---------------------------------------------------------------------
      1          8           0        1.110122   -0.722104    0.000001
      2          8           0        0.106428    1.291348   -0.000002
      3          6           0       -2.518380    0.015767    0.000000
      4          6           0        2.362013   -0.046647   -0.000000
      5          6           0       -1.208828   -0.668829    0.000001
      6          6           0        0.027581    0.083019   -0.000000
      7          1           0       -3.107770   -0.270124    0.875202
      8          1           0       -2.383876    1.094445   -0.000006
      9          1           0       -3.107775   -0.270135   -0.875194
     10          1           0        3.120558   -0.822363    0.000000
     11          1           0        2.456374    0.580539    0.884815
     12          1           0        2.456374    0.580537   -0.884816
     13          1           0       -1.140596   -1.746718    0.000003
 ---------------------------------------------------------------------

 SCF Done:  E(UM062X) =  -307.020178002     A.U. after    1 cycles

 The electronic state is 2-A.
 Alpha  occ. eigenvalues --  -19.66487 -19.60905 -10.66401 -10.58610 -10.57731
 Alpha  occ. eigenvalues --  -10.54218  -1.23333  -1.13963  -0.90351  -0.82759
 Alpha  occ. eigenvalues --   -0.74009  -0.64122  -0.60020  -0.57210  -0.56148
 Alpha  occ. eigenvalues --   -0.51486  -0.50645  -0.47114  -0.46819  -0.44867
 Alpha  occ. eigenvalues --   -0.43142  -0.38327  -0.36232  -0.28844
 Alpha virt. eigenvalues --    0.01207   0.02485   0.03643   0.04684   0.05134
 Alpha virt. eigenvalues --    0.05745   0.06603   0.08026   0.08103   0.09184
 Alpha virt. eigenvalues --    0.10358   0.10394   0.11556   0.12048   0.14755

  Beta  occ. eigenvalues --  -19.66409 -19.60603 -10.66479 -10.58613 -10.57175
  Beta  occ. eigenvalues --  -10.54269  -1.22988  -1.13270  -0.88207  -0.82565
  Beta  occ. eigenvalues --   -0.72728  -0.63674  -0.59023  -0.56293  -0.55652
  Beta  occ. eigenvalues --   -0.51004  -0.48601  -0.46395  -0.45558  -0.44647
  Beta  occ. eigenvalues --   -0.42936  -0.36599  -0.35536
  Beta virt. eigenvalues --   -0.06728   0.00968   0.02521   0.03688   0.04366
  Beta virt. eigenvalues --    0.05050   0.05753   0.06513   0.08199   0.08498
  Beta virt. eigenvalues --    0.08546   0.09798   0.10621   0.12134   0.13146

 Mulliken charges and spin densities:
               1          2
     1  O   -0.171741   0.025320
     2  O   -0.425406   0.158882
     3  C   -0.472208  -0.032128
     4  C   -0.182158  -0.003525
     5  C   -0.024049   0.871226
     6  C    0.242432  -0.057689
     7  H    0.133025   0.034538
     8  H    0.167165   0.002856
     9  H    0.133024   0.034537
    10  H    0.131166   0.000036
    11  H    0.137988   0.001908
    12  H    0.137988   0.001907
    13  H    0.192774  -0.037869
 Sum of Mulliken charges =  -0.00000   1.00000

 Dipole moment (field-independent basis, Debye):
    X=             -0.3514    Y=             -1.7429    Z=              0.0000  Tot=              1.7779
 Quadrupole moment (field-independent basis, Debye-Ang):
   XX=            -28.0433   YY=            -40.3362   ZZ=            -36.2279
   XY=              1.3617   XZ=             -0.0000   YZ=              0.0000

  Exact polarizability:  72.505   1.222  53.367  -0.000  -0.000  41.620
 Approx polarizability:  67.686   0.989  68.118  -0.000  -0.000  51.380

                      1                      2                      3
                      A                      A                      A
 Frequencies --     94.6969               113.6103               161.4880
 Red. masses --      1.1952                 2.2001                 1.1917
 Frc consts  --      0.0063                 0.0167                 0.0183
 IR Inten    --      1.4136                 3.1858                 0.9278

                      4                      5                      6
                      A                      A                      A
 Frequencies --    201.7928               220.1518               352.0152
 Red. masses --      2.4096                 3.0753                 4.2725
 Frc consts  --      0.0578                 0.0878                 0.3119
 IR Inten    --      2.5235                 4.1603                20.8025

                      7                      8                      9
                      A                      A                      A
 Frequencies --    471.3705               584.8637               678.7302
 Red. masses --      4.1101                 1.3220                 3.8336
 Frc consts  --      0.5381                 0.2664                 1.0405
 IR Inten    --      1.6180                 4.7511                 1.9179

                     10                     11                     12
                      A                      A                      A
 Frequencies --    749.9126               881.5573               991.6863
 Red. masses --      4.9097                 2.5313                 1.4084
 Frc consts  --      1.6268                 1.1591                 0.8161
 IR Inten    --     25.3043                12.8386                 0.0005

                     13                     14                     15
                      A                      A                      A
 Frequencies --   1034.5623              1088.8240              1171.5844
 Red. masses --      3.3937                 2.0926                 2.2888
 Frc consts  --      2.1401                 1.4617                 1.8510
 IR Inten    --      7.0656                19.0072                10.1793

                     16                     17                     18
                      A                      A                      A
 Frequencies --   1187.5299              1219.6406              1248.4140
 Red. masses --      1.2891                 1.6048                 3.0927
 Frc consts  --      1.0711                 1.4065                 2.8399
 IR Inten    --      1.3940                44.1454               383.7085

                     19                     20                     21
                      A                      A                      A
 Frequencies --   1402.4868              1437.7063              1480.9389
 Red. masses --      1.2546                 1.5652                 1.0465
 Frc consts  --      1.4540                 1.9062                 1.3523
 IR Inten    --     43.0820                42.9105                 8.3257

                     22                     23                     24
                      A                      A                      A
 Frequencies --   1482.5307              1495.9274              1508.4549
 Red. masses --      1.1382                 1.0420                 1.1673
 Frc consts  --      1.4739                 1.3739                 1.5650
 IR Inten    --      3.3781                 9.0133                44.8773

                     25                     26                     27
                      A                      A                      A
 Frequencies --   1513.8796              1759.9967              3042.0876
 Red. masses --      1.3824                10.9689                 1.0392
 Frc consts  --      1.8667                20.0187                 5.6662
 IR Inten    --     34.5287               216.5137                 8.9413

                     28                     29                     30
                      A                      A                      A
 Frequencies --   3079.2748              3084.4521              3148.4031
 Red. masses --      1.0311                 1.0975                 1.1061
 Frc consts  --      5.7604                 6.1518                 6.4598
 IR Inten    --     26.7981                 5.8534                15.3287

                     31                     32                     33
                      A                      A                      A
 Frequencies --   3163.3266              3187.7826              3226.0243
 Red. masses --      1.0979                 1.1054                 1.0888
 Frc consts  --      6.4729                 6.6186                 6.6762
 IR Inten    --      1.3035                12.1527                 3.4177

 - Thermochemistry -
 -------------------
 Temperature   298.150 Kelvin.  Pressure   1.00000 Atm.
 Atom     1 has atomic number  8 and mass  15.99491

 Molecular mass:    87.04460 amu.
 Principal axes and moments of inertia in atomic units:
                           1         2         3
     Eigenvalues --   176.36319 828.75393 982.81953
           X            0.99997   0.00739   0.00000
           Y           -0.00739   0.99997   0.00000
           Z           -0.00000  -0.00000   1.00000
 This molecule is an asymmetric top.
 Rotational symmetry number  1.
 Rotational temperatures (Kelvin)      0.49111     0.10451     0.08813
 Rotational constants (GHZ):          10.23309     2.17766     1.83629
 Zero-point vibrational energy     277926.6 (Joules/Mol)
                                   66.42606 (Kcal/Mol)
 Warning -- explicit consideration of   8 degrees of freedom as
           vibrations may cause significant error
 Vibrational temperatures:    136.25   163.46   232.35   290.33   316.75
          (Kelvin)            506.47   678.20   841.49   976.54  1078.96
                             1268.36  1426.82  1488.50  1566.57  1685.65
                             1708.59  1754.79  1796.19  2017.87  2068.54
                             2130.74  2133.03  2152.31  2170.33  2178.14
                             2532.24  4376.89  4430.39  4437.84  4529.85
                             4551.32  4586.51  4641.53

 Zero-point correction=                           0.105857 (Hartree/Particle)
 Thermal correction to Energy=                    0.113104
 Thermal correction to Enthalpy=                  0.114048
 Thermal correction to Gibbs Free Energy=         0.074077
 Sum of electronic and zero-point Energies=           -306.914321
 Sum of electronic and thermal Energies=              -306.907074
 Sum of electronic and thermal Enthalpies=            -306.906130
 Sum of electronic and thermal Free Energies=         -306.946101

                     E (Thermal)             CV                S
                      KCal/Mol        Cal/Mol-Kelvin    Cal/Mol-Kelvin
 Total                   70.974             23.902             84.125
 Electronic               0.000              0.000              1.377
 Translational            0.889              2.981             39.304
 Rotational               0.889              2.981             26.466
 Vibrational             69.196             17.940             16.978
 Vibration     1          0.603              1.953              3.561
 Vibration     2          0.607              1.938              3.206
 Vibration     3          0.622              1.890              2.532
 Vibration     4          0.639              1.837              2.117
 Vibration     5          0.647              1.810              1.958
 Vibration     6          0.729              1.571              1.157
 Vibration     7          0.828              1.314              0.734
 Vibration     8          0.942              1.064              0.476

                           ! Non-Optimized Parameters !
 Normal termination of Gaussian 16 at Mon Mar 11 15:56:30 2019.
