 Gaussian 16, Revision A.03,
 Gaussian 16:  EM64L-G16RevA.03 25-Dec-2016

 ----------------------------------------------
 #p m062x/6-311+g(2df,2p) Opt=(CalcFC,ModRedun)
 ----------------------------------------------

 ----------------------------------------
 Gaussian Input Prepared from Scan Object
 ----------------------------------------
 Symbolic Z-matrix:
 Charge =  0 Multiplicity = 2

 SCF Done:  E(UM062X) =  -307.020178002     A.U. after   15 cycles

  Exact polarizability:   0.000   0.000   0.000   0.000   0.000   0.000
 Approx polarizability:  67.686   0.989  68.118  -0.000  -0.000  51.380

 Optimization completed.
    -- Stationary point found.
 SCF Done:  E(UM062X) =  -307.019257299     A.U. after   12 cycles
 SCF Done:  E(UM062X) =  -307.020122942     A.U. after   12 cycles
 SCF Done:  E(UM062X) =  -307.020133096     A.U. after   11 cycles
 Optimization completed.
 SCF Done:  E(UM062X) =  -307.019148663     A.U. after   12 cycles
 SCF Done:  E(UM062X) =  -307.020008618     A.U. after   12 cycles
 SCF Done:  E(UM062X) =  -307.020017083     A.U. after   11 cycles
 SCF Done:  E(UM062X) =  -307.018997057     A.U. after   12 cycles
 SCF Done:  E(UM062X) =  -307.019856994     A.U. after   12 cycles
 SCF Done:  E(UM062X) =  -307.019864364     A.U. after   10 cycles
 SCF Done:  E(UM062X) =  -307.019844174     A.U. after    8 cycles
 SCF Done:  E(UM062X) =  -307.019056406     A.U. after   12 cycles
 SCF Done:  E(UM062X) =  -307.019995368     A.U. after   13 cycles
 SCF Done:  E(UM062X) =  -307.020008470     A.U. after   11 cycles
 SCF Done:  E(UM062X) =  -307.019212891     A.U. after   12 cycles
 SCF Done:  E(UM062X) =  -307.020118649     A.U. after   13 cycles
 SCF Done:  E(UM062X) =  -307.020131702     A.U. after   11 cycles
    -- Stationary point found.
 SCF Done:  E(UM062X) =  -307.019284749     A.U. after   12 cycles
 SCF Done:  E(UM062X) =  -307.020167485     A.U. after   12 cycles
 SCF Done:  E(UM062X) =  -307.020177902     A.U. after   11 cycles
 Optimization completed.
    -- Stationary point found.

                         Standard orientation:
 ---------------------------------------------------------------------
 Center     Atomic      Atomic             Coordinates (Angstroms)
 Number     Number       Type             X           Y           Z
 ---------------------------------------------------------------------
      1          8           0        1.110044   -0.722134   -0.000002
      2          8           0        0.106706    1.291497    0.000188
      3          6           0       -2.518602    0.015626   -0.000269
      4          6           0        2.362037   -0.046876   -0.000197
      5          6           0       -1.208822   -0.668541    0.000310
      6          6           0        0.027620    0.083175    0.000163
      7          1           0       -3.108302   -0.270453    0.874690
      8          1           0       -2.383996    1.094228   -0.000388
      9          1           0       -3.108040   -0.270436   -0.875433
     10          1           0        3.120461   -0.822713   -0.000322
     11          1           0        2.456645    0.580292    0.884604
     12          1           0        2.456362    0.580292   -0.885029
     13          1           0       -1.140534   -1.746423    0.000345
 ---------------------------------------------------------------------

 The electronic state is 2-A.
 Alpha  occ. eigenvalues --  -19.66487 -19.60906 -10.66401 -10.58610 -10.57731
 Alpha  occ. eigenvalues --  -10.54220  -1.23333  -1.13962  -0.90352  -0.82760
 Alpha  occ. eigenvalues --   -0.74010  -0.64122  -0.60020  -0.57210  -0.56148
 Alpha  occ. eigenvalues --   -0.51489  -0.50641  -0.47116  -0.46818  -0.44869
 Alpha  occ. eigenvalues --   -0.43142  -0.38327  -0.36233  -0.28845
 Alpha virt. eigenvalues --    0.01207   0.02484   0.03643   0.04684   0.05134
 Alpha virt. eigenvalues --    0.05745   0.06603   0.08027   0.08103   0.09185
 Alpha virt. eigenvalues --    0.10357   0.10394   0.11556   0.12048   0.14754

  Beta  occ. eigenvalues --  -19.66409 -19.60603 -10.66480 -10.58613 -10.57175
  Beta  occ. eigenvalues --  -10.54270  -1.22988  -1.13269  -0.88208  -0.82565
  Beta  occ. eigenvalues --   -0.72730  -0.63673  -0.59024  -0.56292  -0.55651
  Beta  occ. eigenvalues --   -0.51006  -0.48597  -0.46398  -0.45557  -0.44648
  Beta  occ. eigenvalues --   -0.42937  -0.36599  -0.35536
  Beta virt. eigenvalues --   -0.06729   0.00968   0.02521   0.03688   0.04366
  Beta virt. eigenvalues --    0.05050   0.05753   0.06513   0.08199   0.08498
  Beta virt. eigenvalues --    0.08546   0.09798   0.10621   0.12135   0.13145

 Mulliken charges and spin densities:
               1          2
     1  O   -0.171733   0.025328
     2  O   -0.425395   0.158906
     3  C   -0.472287  -0.032157
     4  C   -0.182164  -0.003523
     5  C   -0.023748   0.871189
     6  C    0.242228  -0.057695
     7  H    0.133021   0.034542
     8  H    0.167141   0.002860
     9  H    0.133043   0.034569
    10  H    0.131165   0.000036
    11  H    0.137987   0.001908
    12  H    0.137987   0.001908
    13  H    0.192753  -0.037871
 Sum of Mulliken charges =  -0.00000   1.00000

 Dipole moment (field-independent basis, Debye):
    X=             -0.3522    Y=             -1.7433    Z=             -0.0006  Tot=              1.7785
 Quadrupole moment (field-independent basis, Debye-Ang):
   XX=            -28.0398   YY=            -40.3381   ZZ=            -36.2286
   XY=              1.3617   XZ=              0.0003   YZ=             -0.0010

 Normal termination of Gaussian 16 at Tue Apr 23 23:27:19 2019.
