 Gaussian 16, Revision A.03,
 Gaussian 16:  EM64L-G16RevA.03 25-Dec-2016

 ----------------------------------------------
 #p m062x/6-311+g(2df,2p) Opt=(CalcFC,ModRedun)
 ----------------------------------------------

 ----------------------------------------
 Gaussian Input Prepared from Scan Object
 ----------------------------------------
 Symbolic Z-matrix:
 Charge =  0 Multiplicity = 2

 SCF Done:  E(UM062X) =  -307.020178002     A.U. after   15 cycles

  Exact polarizability:   0.000   0.000   0.000   0.000   0.000   0.000
 Approx polarizability:  67.686   0.989  68.118  -0.000  -0.000  51.380

 Optimization completed.
    -- Stationary point found.
 SCF Done:  E(UM062X) =  -307.019099710     A.U. after   12 cycles
 SCF Done:  E(UM062X) =  -307.020005540     A.U. after   12 cycles
 SCF Done:  E(UM062X) =  -307.020008502     A.U. after    8 cycles
 Optimization completed.
 SCF Done:  E(UM062X) =  -307.018603563     A.U. after   12 cycles
 SCF Done:  E(UM062X) =  -307.019567927     A.U. after   12 cycles
 SCF Done:  E(UM062X) =  -307.019571043     A.U. after    8 cycles
 SCF Done:  E(UM062X) =  -307.017986398     A.U. after   12 cycles
 SCF Done:  E(UM062X) =  -307.019024546     A.U. after   12 cycles
 SCF Done:  E(UM062X) =  -307.019026599     A.U. after    8 cycles
 SCF Done:  E(UM062X) =  -307.019041811     A.U. after    9 cycles
 SCF Done:  E(UM062X) =  -307.018547851     A.U. after   12 cycles
 SCF Done:  E(UM062X) =  -307.019577676     A.U. after   12 cycles
 SCF Done:  E(UM062X) =  -307.019579372     A.U. after    8 cycles
 SCF Done:  E(UM062X) =  -307.019050579     A.U. after   12 cycles
 SCF Done:  E(UM062X) =  -307.020007066     A.U. after   12 cycles
 SCF Done:  E(UM062X) =  -307.020009985     A.U. after    9 cycles
    -- Stationary point found.
 SCF Done:  E(UM062X) =  -307.019271385     A.U. after   12 cycles
 SCF Done:  E(UM062X) =  -307.020175186     A.U. after   12 cycles
 SCF Done:  E(UM062X) =  -307.020177982     A.U. after    8 cycles
 Optimization completed.
    -- Stationary point found.

                         Standard orientation:
 ---------------------------------------------------------------------
 Center     Atomic      Atomic             Coordinates (Angstroms)
 Number     Number       Type             X           Y           Z
 ---------------------------------------------------------------------
      1          8           0        1.110155   -0.722185    0.000033
      2          8           0        0.106606    1.291230   -0.000001
      3          6           0       -2.518388    0.015901    0.000019
      4          6           0        2.361919   -0.046567    0.000002
      5          6           0       -1.208899   -0.668817   -0.000019
      6          6           0        0.027570    0.082906   -0.000054
      7          1           0       -3.107799   -0.269983    0.875209
      8          1           0       -2.383782    1.094566    0.000073
      9          1           0       -3.107814   -0.269895   -0.875189
     10          1           0        3.120500   -0.822272    0.000141
     11          1           0        2.456087    0.580817    0.884715
     12          1           0        2.456295    0.580584   -0.884828
     13          1           0       -1.140776   -1.746714   -0.000072
 ---------------------------------------------------------------------

 The electronic state is 2-A.
 Alpha  occ. eigenvalues --  -19.66486 -19.60905 -10.66401 -10.58609 -10.57732
 Alpha  occ. eigenvalues --  -10.54219  -1.23333  -1.13962  -0.90352  -0.82758
 Alpha  occ. eigenvalues --   -0.74009  -0.64122  -0.60021  -0.57210  -0.56147
 Alpha  occ. eigenvalues --   -0.51486  -0.50645  -0.47115  -0.46817  -0.44867
 Alpha  occ. eigenvalues --   -0.43142  -0.38326  -0.36232  -0.28845
 Alpha virt. eigenvalues --    0.01207   0.02485   0.03642   0.04684   0.05134
 Alpha virt. eigenvalues --    0.05745   0.06603   0.08026   0.08103   0.09184
 Alpha virt. eigenvalues --    0.10358   0.10394   0.11556   0.12048   0.14755

  Beta  occ. eigenvalues --  -19.66408 -19.60603 -10.66479 -10.58612 -10.57176
  Beta  occ. eigenvalues --  -10.54269  -1.22989  -1.13268  -0.88208  -0.82564
  Beta  occ. eigenvalues --   -0.72729  -0.63674  -0.59025  -0.56292  -0.55651
  Beta  occ. eigenvalues --   -0.51004  -0.48601  -0.46396  -0.45556  -0.44648
  Beta  occ. eigenvalues --   -0.42936  -0.36599  -0.35536
  Beta virt. eigenvalues --   -0.06729   0.00968   0.02521   0.03688   0.04366
  Beta virt. eigenvalues --    0.05050   0.05753   0.06513   0.08199   0.08498
  Beta virt. eigenvalues --    0.08545   0.09798   0.10621   0.12135   0.13146

 Mulliken charges and spin densities:
               1          2
     1  O   -0.171759   0.025319
     2  O   -0.425412   0.158901
     3  C   -0.472195  -0.032129
     4  C   -0.182150  -0.003522
     5  C   -0.024073   0.871217
     6  C    0.242453  -0.057700
     7  H    0.133025   0.034536
     8  H    0.167166   0.002856
     9  H    0.133028   0.034539
    10  H    0.131162   0.000036
    11  H    0.137986   0.001906
    12  H    0.137992   0.001908
    13  H    0.192779  -0.037867
 Sum of Mulliken charges =  -0.00000   1.00000

 Dipole moment (field-independent basis, Debye):
    X=             -0.3526    Y=             -1.7425    Z=             -0.0001  Tot=              1.7778
 Quadrupole moment (field-independent basis, Debye-Ang):
   XX=            -28.0444   YY=            -40.3355   ZZ=            -36.2282
   XY=              1.3621   XZ=             -0.0002   YZ=              0.0002

 Normal termination of Gaussian 16 at Tue Apr 23 23:15:44 2019.
