 Gaussian 16, Revision A.03,
 Gaussian 16:  EM64L-G16RevA.03 25-Dec-2016

 ----------------------------------------------
 #p m062x/6-311+g(2df,2p) Opt=(CalcFC,ModRedun)
 ----------------------------------------------

 ----------------------------------------
 Gaussian Input Prepared from Scan Object
 ----------------------------------------
 Symbolic Z-matrix:
 Charge =  0 Multiplicity = 2

 SCF Done:  E(UM062X) =  -307.020178002     A.U. after   15 cycles

  Exact polarizability:   0.000   0.000   0.000   0.000   0.000   0.000
 Approx polarizability:  67.686   0.989  68.118  -0.000  -0.000  51.380

 Optimization completed.
    -- Stationary point found.
 SCF Done:  E(UM062X) =  -307.019091150     A.U. after   12 cycles
 SCF Done:  E(UM062X) =  -307.020012421     A.U. after   12 cycles
 SCF Done:  E(UM062X) =  -307.020014622     A.U. after    9 cycles
 Optimization completed.
 SCF Done:  E(UM062X) =  -307.018624626     A.U. after   12 cycles
 SCF Done:  E(UM062X) =  -307.019587810     A.U. after   12 cycles
 SCF Done:  E(UM062X) =  -307.019591009     A.U. after    9 cycles
 SCF Done:  E(UM062X) =  -307.018019813     A.U. after   13 cycles
 SCF Done:  E(UM062X) =  -307.019053076     A.U. after   12 cycles
 SCF Done:  E(UM062X) =  -307.019054745     A.U. after    8 cycles
 SCF Done:  E(UM062X) =  -307.018538356     A.U. after   12 cycles
 SCF Done:  E(UM062X) =  -307.019582233     A.U. after   12 cycles
 SCF Done:  E(UM062X) =  -307.019583903     A.U. after    9 cycles
 SCF Done:  E(UM062X) =  -307.019030549     A.U. after   12 cycles
 SCF Done:  E(UM062X) =  -307.020010385     A.U. after   12 cycles
 SCF Done:  E(UM062X) =  -307.020013322     A.U. after   11 cycles
 SCF Done:  E(UM062X) =  -307.020013377     A.U. after    7 cycles
    -- Stationary point found.
 SCF Done:  E(UM062X) =  -307.019246737     A.U. after   12 cycles
 SCF Done:  E(UM062X) =  -307.020175750     A.U. after   12 cycles
 SCF Done:  E(UM062X) =  -307.020177976     A.U. after    9 cycles
 Optimization completed.
    -- Stationary point found.

                         Standard orientation:
 ---------------------------------------------------------------------
 Center     Atomic      Atomic             Coordinates (Angstroms)
 Number     Number       Type             X           Y           Z
 ---------------------------------------------------------------------
      1          8           0        1.110141   -0.722158    0.000414
      2          8           0        0.106522    1.291289    0.000212
      3          6           0       -2.518377    0.015837   -0.000203
      4          6           0        2.361944   -0.046593   -0.000413
      5          6           0       -1.208859   -0.668825   -0.000017
      6          6           0        0.027583    0.082965    0.000176
      7          1           0       -3.107936   -0.270081    0.874875
      8          1           0       -2.383818    1.094508   -0.000121
      9          1           0       -3.107633   -0.269978   -0.875520
     10          1           0        3.120592   -0.822214    0.000159
     11          1           0        2.456399    0.581189    0.884004
     12          1           0        2.456032    0.579950   -0.885663
     13          1           0       -1.140686   -1.746718   -0.000003
 ---------------------------------------------------------------------

 The electronic state is 2-A.
 Alpha  occ. eigenvalues --  -19.66487 -19.60905 -10.66401 -10.58609 -10.57731
 Alpha  occ. eigenvalues --  -10.54219  -1.23333  -1.13962  -0.90351  -0.82759
 Alpha  occ. eigenvalues --   -0.74009  -0.64122  -0.60020  -0.57211  -0.56148
 Alpha  occ. eigenvalues --   -0.51486  -0.50645  -0.47115  -0.46819  -0.44867
 Alpha  occ. eigenvalues --   -0.43141  -0.38326  -0.36233  -0.28845
 Alpha virt. eigenvalues --    0.01207   0.02485   0.03642   0.04684   0.05134
 Alpha virt. eigenvalues --    0.05745   0.06603   0.08026   0.08103   0.09184
 Alpha virt. eigenvalues --    0.10358   0.10394   0.11556   0.12048   0.14755

  Beta  occ. eigenvalues --  -19.66408 -19.60603 -10.66479 -10.58612 -10.57175
  Beta  occ. eigenvalues --  -10.54269  -1.22989  -1.13269  -0.88207  -0.82564
  Beta  occ. eigenvalues --   -0.72728  -0.63673  -0.59024  -0.56293  -0.55652
  Beta  occ. eigenvalues --   -0.51004  -0.48601  -0.46395  -0.45557  -0.44647
  Beta  occ. eigenvalues --   -0.42935  -0.36599  -0.35536
  Beta virt. eigenvalues --   -0.06729   0.00968   0.02521   0.03688   0.04366
  Beta virt. eigenvalues --    0.05050   0.05753   0.06513   0.08199   0.08498
  Beta virt. eigenvalues --    0.08546   0.09798   0.10621   0.12134   0.13146

 Mulliken charges and spin densities:
               1          2
     1  O   -0.171750   0.025320
     2  O   -0.425397   0.158891
     3  C   -0.472204  -0.032129
     4  C   -0.182144  -0.003523
     5  C   -0.024061   0.871222
     6  C    0.242428  -0.057695
     7  H    0.133031   0.034536
     8  H    0.167165   0.002856
     9  H    0.133021   0.034539
    10  H    0.131164   0.000036
    11  H    0.137982   0.001903
    12  H    0.137989   0.001911
    13  H    0.192777  -0.037868
 Sum of Mulliken charges =  -0.00000   1.00000

 Dipole moment (field-independent basis, Debye):
    X=             -0.3520    Y=             -1.7427    Z=             -0.0012  Tot=              1.7779
 Quadrupole moment (field-independent basis, Debye-Ang):
   XX=            -28.0439   YY=            -40.3362   ZZ=            -36.2278
   XY=              1.3618   XZ=             -0.0013   YZ=             -0.0001

 Normal termination of Gaussian 16 at Mon Mar 11 21:11:19 2019.
