 Gaussian 16, Revision A.03,
 Gaussian 16:  EM64L-G16RevA.03 25-Dec-2016

 ----------------------------------------------
 #p m062x/6-311+g(2df,2p) Opt=(CalcFC,ModRedun)
 ----------------------------------------------

 ----------------------------------------
 Gaussian Input Prepared from Scan Object
 ----------------------------------------
 Symbolic Z-matrix:
 Charge =  0 Multiplicity = 2

 SCF Done:  E(UM062X) =  -307.020178002     A.U. after   15 cycles

  Exact polarizability:   0.000   0.000   0.000   0.000   0.000   0.000
 Approx polarizability:  67.686   0.989  68.118  -0.000  -0.000  51.380

 Optimization completed.
    -- Stationary point found.
 SCF Done:  E(UM062X) =  -307.019099712     A.U. after   12 cycles
 SCF Done:  E(UM062X) =  -307.020010747     A.U. after   12 cycles
 SCF Done:  E(UM062X) =  -307.020013365     A.U. after    9 cycles
 Optimization completed.
 SCF Done:  E(UM062X) =  -307.018618091     A.U. after   12 cycles
 SCF Done:  E(UM062X) =  -307.019580715     A.U. after   12 cycles
 SCF Done:  E(UM062X) =  -307.019583886     A.U. after    8 cycles
 SCF Done:  E(UM062X) =  -307.018006539     A.U. after   12 cycles
 SCF Done:  E(UM062X) =  -307.019039219     A.U. after   12 cycles
 SCF Done:  E(UM062X) =  -307.019041233     A.U. after    8 cycles
 SCF Done:  E(UM062X) =  -307.019054755     A.U. after    7 cycles
 SCF Done:  E(UM062X) =  -307.018561871     A.U. after   12 cycles
 SCF Done:  E(UM062X) =  -307.019590240     A.U. after   12 cycles
 SCF Done:  E(UM062X) =  -307.019591026     A.U. after    8 cycles
 SCF Done:  E(UM062X) =  -307.019055548     A.U. after   12 cycles
 SCF Done:  E(UM062X) =  -307.020012743     A.U. after   12 cycles
 SCF Done:  E(UM062X) =  -307.020014613     A.U. after    9 cycles
    -- Stationary point found.
 SCF Done:  E(UM062X) =  -307.019266826     A.U. after   12 cycles
 SCF Done:  E(UM062X) =  -307.020175700     A.U. after   12 cycles
 SCF Done:  E(UM062X) =  -307.020177977     A.U. after    9 cycles
 Optimization completed.
    -- Stationary point found.

                         Standard orientation:
 ---------------------------------------------------------------------
 Center     Atomic      Atomic             Coordinates (Angstroms)
 Number     Number       Type             X           Y           Z
 ---------------------------------------------------------------------
      1          8           0        1.110144   -0.722154   -0.000460
      2          8           0        0.106518    1.291294   -0.000217
      3          6           0       -2.518377    0.015829    0.000215
      4          6           0        2.361944   -0.046602    0.000422
      5          6           0       -1.208854   -0.668822    0.000032
      6          6           0        0.027583    0.082972   -0.000176
      7          1           0       -3.107733   -0.270171    0.875401
      8          1           0       -2.383830    1.094501    0.000346
      9          1           0       -3.107829   -0.269918   -0.874994
     10          1           0        3.120552   -0.822266   -0.000058
     11          1           0        2.456023    0.579915    0.885692
     12          1           0        2.456410    0.581281   -0.883932
     13          1           0       -1.140668   -1.746714    0.000007
 ---------------------------------------------------------------------

 The electronic state is 2-A.
 Alpha  occ. eigenvalues --  -19.66487 -19.60905 -10.66401 -10.58609 -10.57731
 Alpha  occ. eigenvalues --  -10.54219  -1.23333  -1.13963  -0.90351  -0.82759
 Alpha  occ. eigenvalues --   -0.74009  -0.64122  -0.60020  -0.57210  -0.56148
 Alpha  occ. eigenvalues --   -0.51486  -0.50645  -0.47115  -0.46818  -0.44867
 Alpha  occ. eigenvalues --   -0.43141  -0.38326  -0.36233  -0.28845
 Alpha virt. eigenvalues --    0.01207   0.02485   0.03642   0.04684   0.05134
 Alpha virt. eigenvalues --    0.05745   0.06603   0.08026   0.08103   0.09184
 Alpha virt. eigenvalues --    0.10358   0.10394   0.11556   0.12048   0.14755

  Beta  occ. eigenvalues --  -19.66408 -19.60603 -10.66479 -10.58612 -10.57175
  Beta  occ. eigenvalues --  -10.54269  -1.22989  -1.13269  -0.88207  -0.82564
  Beta  occ. eigenvalues --   -0.72728  -0.63673  -0.59024  -0.56293  -0.55652
  Beta  occ. eigenvalues --   -0.51004  -0.48601  -0.46396  -0.45557  -0.44647
  Beta  occ. eigenvalues --   -0.42936  -0.36599  -0.35536
  Beta virt. eigenvalues --   -0.06729   0.00968   0.02521   0.03688   0.04366
  Beta virt. eigenvalues --    0.05050   0.05753   0.06513   0.08199   0.08498
  Beta virt. eigenvalues --    0.08545   0.09798   0.10621   0.12134   0.13146

 Mulliken charges and spin densities:
               1          2
     1  O   -0.171744   0.025321
     2  O   -0.425397   0.158890
     3  C   -0.472206  -0.032128
     4  C   -0.182150  -0.003523
     5  C   -0.024058   0.871220
     6  C    0.242428  -0.057693
     7  H    0.133016   0.034531
     8  H    0.167165   0.002856
     9  H    0.133035   0.034545
    10  H    0.131163   0.000036
    11  H    0.137986   0.001912
    12  H    0.137986   0.001903
    13  H    0.192777  -0.037868
 Sum of Mulliken charges =  -0.00000   1.00000

 Dipole moment (field-independent basis, Debye):
    X=             -0.3521    Y=             -1.7427    Z=              0.0013  Tot=              1.7779
 Quadrupole moment (field-independent basis, Debye-Ang):
   XX=            -28.0442   YY=            -40.3360   ZZ=            -36.2279
   XY=              1.3618   XZ=              0.0018   YZ=             -0.0002

 Normal termination of Gaussian 16 at Tue Mar 12 02:49:14 2019.
