 Gaussian 16, Revision A.03,
 Gaussian 16:  EM64L-G16RevA.03 25-Dec-2016

 ----------------------------------------------
 #p m062x/6-311+g(2df,2p) Opt=(CalcFC,ModRedun)
 ----------------------------------------------

 ----------------------------------------
 Gaussian Input Prepared from Scan Object
 ----------------------------------------
 Symbolic Z-matrix:
 Charge =  0 Multiplicity = 2

 SCF Done:  E(UM062X) =  -307.020178002     A.U. after   15 cycles

  Exact polarizability:   0.000   0.000   0.000   0.000   0.000   0.000
 Approx polarizability:  67.686   0.989  68.118  -0.000  -0.000  51.380

 Optimization completed.
    -- Stationary point found.
 SCF Done:  E(UM062X) =  -307.019430764     A.U. after   13 cycles
 SCF Done:  E(UM062X) =  -307.019852427     A.U. after   12 cycles
 SCF Done:  E(UM062X) =  -307.019853196     A.U. after   10 cycles
 Optimization completed.
 SCF Done:  E(UM062X) =  -307.018451170     A.U. after   13 cycles
 SCF Done:  E(UM062X) =  -307.018896085     A.U. after   12 cycles
 SCF Done:  E(UM062X) =  -307.018897184     A.U. after   10 cycles
 SCF Done:  E(UM062X) =  -307.016877471     A.U. after   13 cycles
 SCF Done:  E(UM062X) =  -307.017365267     A.U. after   12 cycles
 SCF Done:  E(UM062X) =  -307.017366233     A.U. after   10 cycles
 SCF Done:  E(UM062X) =  -307.017366397     A.U. after    8 cycles
 SCF Done:  E(UM062X) =  -307.018422309     A.U. after   13 cycles
 SCF Done:  E(UM062X) =  -307.018896026     A.U. after   12 cycles
 SCF Done:  E(UM062X) =  -307.018897230     A.U. after    9 cycles
 SCF Done:  E(UM062X) =  -307.019417402     A.U. after   13 cycles
 SCF Done:  E(UM062X) =  -307.019852387     A.U. after   12 cycles
 SCF Done:  E(UM062X) =  -307.019853219     A.U. after   10 cycles
    -- Stationary point found.
 SCF Done:  E(UM062X) =  -307.019758846     A.U. after   13 cycles
 SCF Done:  E(UM062X) =  -307.020177113     A.U. after   12 cycles
 SCF Done:  E(UM062X) =  -307.020177980     A.U. after   10 cycles
 Optimization completed.
    -- Stationary point found.

                         Standard orientation:
 ---------------------------------------------------------------------
 Center     Atomic      Atomic             Coordinates (Angstroms)
 Number     Number       Type             X           Y           Z
 ---------------------------------------------------------------------
      1          8           0        1.110036   -0.722101    0.000025
      2          8           0        0.106610    1.291463    0.000031
      3          6           0       -2.518460    0.015694   -0.000029
      4          6           0        2.362031   -0.046819   -0.000031
      5          6           0       -1.208834   -0.668685    0.000021
      6          6           0        0.027576    0.083160   -0.000001
      7          1           0       -3.107764   -0.270347    0.875183
      8          1           0       -2.384164    1.094379   -0.000217
      9          1           0       -3.108057   -0.270523   -0.875014
     10          1           0        3.120465   -0.822645   -0.000028
     11          1           0        2.456512    0.580378    0.884759
     12          1           0        2.456471    0.580307   -0.884882
     13          1           0       -1.140513   -1.746548   -0.000009
 ---------------------------------------------------------------------

 The electronic state is 2-A.
 Alpha  occ. eigenvalues --  -19.66486 -19.60905 -10.66401 -10.58610 -10.57731
 Alpha  occ. eigenvalues --  -10.54219  -1.23332  -1.13962  -0.90352  -0.82759
 Alpha  occ. eigenvalues --   -0.74009  -0.64121  -0.60020  -0.57210  -0.56147
 Alpha  occ. eigenvalues --   -0.51487  -0.50643  -0.47115  -0.46818  -0.44869
 Alpha  occ. eigenvalues --   -0.43142  -0.38326  -0.36232  -0.28844
 Alpha virt. eigenvalues --    0.01207   0.02484   0.03643   0.04684   0.05134
 Alpha virt. eigenvalues --    0.05745   0.06603   0.08027   0.08103   0.09184
 Alpha virt. eigenvalues --    0.10357   0.10394   0.11556   0.12048   0.14755

  Beta  occ. eigenvalues --  -19.66408 -19.60603 -10.66479 -10.58613 -10.57174
  Beta  occ. eigenvalues --  -10.54269  -1.22988  -1.13269  -0.88208  -0.82565
  Beta  occ. eigenvalues --   -0.72729  -0.63673  -0.59024  -0.56292  -0.55651
  Beta  occ. eigenvalues --   -0.51005  -0.48598  -0.46397  -0.45557  -0.44649
  Beta  occ. eigenvalues --   -0.42936  -0.36599  -0.35536
  Beta virt. eigenvalues --   -0.06728   0.00968   0.02521   0.03688   0.04366
  Beta virt. eigenvalues --    0.05050   0.05753   0.06513   0.08199   0.08498
  Beta virt. eigenvalues --    0.08546   0.09798   0.10621   0.12134   0.13146

 Mulliken charges and spin densities:
               1          2
     1  O   -0.171748   0.025328
     2  O   -0.425401   0.158863
     3  C   -0.472253  -0.032135
     4  C   -0.182163  -0.003524
     5  C   -0.023922   0.871207
     6  C    0.242359  -0.057681
     7  H    0.133034   0.034554
     8  H    0.167148   0.002857
     9  H    0.133028   0.034549
    10  H    0.131164   0.000036
    11  H    0.137989   0.001908
    12  H    0.137985   0.001908
    13  H    0.192780  -0.037870
 Sum of Mulliken charges =  -0.00000   1.00000

 Dipole moment (field-independent basis, Debye):
    X=             -0.3520    Y=             -1.7432    Z=             -0.0001  Tot=              1.7784
 Quadrupole moment (field-independent basis, Debye-Ang):
   XX=            -28.0414   YY=            -40.3368   ZZ=            -36.2284
   XY=              1.3614   XZ=             -0.0000   YZ=             -0.0002

 Normal termination of Gaussian 16 at Tue Apr 23 23:46:52 2019.
