 Gaussian 16, Revision A.03,
 Gaussian 16:  EM64L-G16RevA.03 25-Dec-2016

 ----------------------------------------------
 #p m062x/6-311+g(2df,2p) Opt=(CalcFC,ModRedun)
 ----------------------------------------------

 ----------------------------------------
 Gaussian Input Prepared from Scan Object
 ----------------------------------------
 Symbolic Z-matrix:
 Charge =  0 Multiplicity = 2

 SCF Done:  E(UM062X) =  -307.020178002     A.U. after   15 cycles

  Exact polarizability:   0.000   0.000   0.000   0.000   0.000   0.000
 Approx polarizability:  67.686   0.989  68.118  -0.000  -0.000  51.380

 Optimization completed.
    -- Stationary point found.
 SCF Done:  E(UM062X) =  -307.013655905     A.U. after   15 cycles
 SCF Done:  E(UM062X) =  -307.015889369     A.U. after   13 cycles
 SCF Done:  E(UM062X) =  -307.015920087     A.U. after   12 cycles
 SCF Done:  E(UM062X) =  -307.015921651     A.U. after   10 cycles
 SCF Done:  E(UM062X) =  -307.015921834     A.U. after    8 cycles
 Optimization completed.
 SCF Done:  E(UM062X) =  -307.003138784     A.U. after   15 cycles
 SCF Done:  E(UM062X) =  -307.007174712     A.U. after   13 cycles
 SCF Done:  E(UM062X) =  -307.007470497     A.U. after   13 cycles
 SCF Done:  E(UM062X) =  -307.007476840     A.U. after   10 cycles
 SCF Done:  E(UM062X) =  -307.015782559     A.U. after   14 cycles
 SCF Done:  E(UM062X) =  -307.015913057     A.U. after   12 cycles
 SCF Done:  E(UM062X) =  -307.015921575     A.U. after   11 cycles
 SCF Done:  E(UM062X) =  -307.015921831     A.U. after    9 cycles
    -- Stationary point found.
 SCF Done:  E(UM062X) =  -307.018032433     A.U. after   14 cycles
 SCF Done:  E(UM062X) =  -307.020084541     A.U. after   13 cycles
 SCF Done:  E(UM062X) =  -307.020131704     A.U. after   12 cycles
 SCF Done:  E(UM062X) =  -307.020177414     A.U. after   12 cycles
 SCF Done:  E(UM062X) =  -307.020177984     A.U. after    9 cycles
 SCF Done:  E(UM062X) =  -307.020178002     A.U. after    6 cycles
 Optimization completed.
    -- Stationary point found.

                         Standard orientation:
 ---------------------------------------------------------------------
 Center     Atomic      Atomic             Coordinates (Angstroms)
 Number     Number       Type             X           Y           Z
 ---------------------------------------------------------------------
      1          8           0        1.110119   -0.722116    0.000000
      2          8           0        0.106446    1.291342   -0.000002
      3          6           0       -2.518381    0.015776    0.000001
      4          6           0        2.362002   -0.046642    0.000001
      5          6           0       -1.208832   -0.668824   -0.000002
      6          6           0        0.027584    0.083014   -0.000001
      7          1           0       -3.107747   -0.270072    0.875233
      8          1           0       -2.383870    1.094454   -0.000056
      9          1           0       -3.107803   -0.270167   -0.875161
     10          1           0        3.120558   -0.822347   -0.000018
     11          1           0        2.456361    0.580529    0.884827
     12          1           0        2.456346    0.580560   -0.884804
     13          1           0       -1.140603   -1.746714   -0.000006
 ---------------------------------------------------------------------

 The electronic state is 2-A.
 Alpha  occ. eigenvalues --  -19.66487 -19.60905 -10.66401 -10.58610 -10.57731
 Alpha  occ. eigenvalues --  -10.54218  -1.23333  -1.13963  -0.90351  -0.82759
 Alpha  occ. eigenvalues --   -0.74009  -0.64122  -0.60020  -0.57210  -0.56148
 Alpha  occ. eigenvalues --   -0.51486  -0.50645  -0.47114  -0.46819  -0.44867
 Alpha  occ. eigenvalues --   -0.43142  -0.38327  -0.36232  -0.28844
 Alpha virt. eigenvalues --    0.01207   0.02485   0.03642   0.04684   0.05134
 Alpha virt. eigenvalues --    0.05745   0.06603   0.08026   0.08103   0.09184
 Alpha virt. eigenvalues --    0.10358   0.10394   0.11556   0.12048   0.14755

  Beta  occ. eigenvalues --  -19.66409 -19.60603 -10.66479 -10.58613 -10.57175
  Beta  occ. eigenvalues --  -10.54269  -1.22988  -1.13269  -0.88207  -0.82565
  Beta  occ. eigenvalues --   -0.72728  -0.63674  -0.59023  -0.56293  -0.55652
  Beta  occ. eigenvalues --   -0.51004  -0.48601  -0.46395  -0.45557  -0.44647
  Beta  occ. eigenvalues --   -0.42936  -0.36599  -0.35536
  Beta virt. eigenvalues --   -0.06728   0.00968   0.02521   0.03688   0.04366
  Beta virt. eigenvalues --    0.05050   0.05753   0.06513   0.08199   0.08498
  Beta virt. eigenvalues --    0.08546   0.09798   0.10621   0.12134   0.13146

 Mulliken charges and spin densities:
               1          2
     1  O   -0.171742   0.025321
     2  O   -0.425403   0.158881
     3  C   -0.472209  -0.032128
     4  C   -0.182156  -0.003524
     5  C   -0.024049   0.871226
     6  C    0.242428  -0.057689
     7  H    0.133026   0.034540
     8  H    0.167164   0.002856
     9  H    0.133024   0.034535
    10  H    0.131166   0.000036
    11  H    0.137989   0.001908
    12  H    0.137988   0.001907
    13  H    0.192774  -0.037869
 Sum of Mulliken charges =  -0.00000   1.00000

 Dipole moment (field-independent basis, Debye):
    X=             -0.3515    Y=             -1.7428    Z=              0.0000  Tot=              1.7779
 Quadrupole moment (field-independent basis, Debye-Ang):
   XX=            -28.0433   YY=            -40.3362   ZZ=            -36.2279
   XY=              1.3617   XZ=             -0.0000   YZ=              0.0000

 Normal termination of Gaussian 16 at Fri Mar 29 17:06:26 2019.
