 Gaussian 16, Revision A.03,
 Gaussian 16:  EM64L-G16RevA.03 25-Dec-2016

 ----------------------------------------------
 #p m062x/6-311+g(2df,2p) Opt=(CalcFC,ModRedun)
 ----------------------------------------------

 ----------------------------------------
 Gaussian Input Prepared from Scan Object
 ----------------------------------------
 Symbolic Z-matrix:
 Charge =  0 Multiplicity = 2

 SCF Done:  E(UM062X) =  -307.020178002     A.U. after   15 cycles

  Exact polarizability:   0.000   0.000   0.000   0.000   0.000   0.000
 Approx polarizability:  67.686   0.989  68.118  -0.000  -0.000  51.380

 Optimization completed.
    -- Stationary point found.
 SCF Done:  E(UM062X) =  -307.010144082     A.U. after   13 cycles
 SCF Done:  E(UM062X) =  -307.018580254     A.U. after   13 cycles
 SCF Done:  E(UM062X) =  -307.019037008     A.U. after   11 cycles
 SCF Done:  E(UM062X) =  -307.019041137     A.U. after   10 cycles
 SCF Done:  E(UM062X) =  -307.019041240     A.U. after    8 cycles
 Optimization completed.
 SCF Done:  E(UM062X) =  -307.007747801     A.U. after   13 cycles
 SCF Done:  E(UM062X) =  -307.017502701     A.U. after   13 cycles
 SCF Done:  E(UM062X) =  -307.018094003     A.U. after   12 cycles
 SCF Done:  E(UM062X) =  -307.018099162     A.U. after   10 cycles
 SCF Done:  E(UM062X) =  -307.018092980     A.U. after   12 cycles
 SCF Done:  E(UM062X) =  -307.018099561     A.U. after   10 cycles
 SCF Done:  E(UM062X) =  -307.008790382     A.U. after   12 cycles
 SCF Done:  E(UM062X) =  -307.018459529     A.U. after   13 cycles
 SCF Done:  E(UM062X) =  -307.019048319     A.U. after   12 cycles
 SCF Done:  E(UM062X) =  -307.019054676     A.U. after   10 cycles
    -- Stationary point found.
 SCF Done:  E(UM062X) =  -307.011215584     A.U. after   13 cycles
 SCF Done:  E(UM062X) =  -307.019790652     A.U. after   13 cycles
 SCF Done:  E(UM062X) =  -307.020171573     A.U. after   12 cycles
 SCF Done:  E(UM062X) =  -307.020177908     A.U. after    9 cycles
 Optimization completed.
    -- Stationary point found.

                         Standard orientation:
 ---------------------------------------------------------------------
 Center     Atomic      Atomic             Coordinates (Angstroms)
 Number     Number       Type             X           Y           Z
 ---------------------------------------------------------------------
      1          8           0        1.110160   -0.722347   -0.000267
      2          8           0        0.106819    1.291105   -0.000126
      3          6           0       -2.518335    0.016059    0.000106
      4          6           0        2.361698   -0.046419    0.000235
      5          6           0       -1.208922   -0.668805    0.000054
      6          6           0        0.027623    0.082794   -0.000111
      7          1           0       -3.107837   -0.269862    0.875219
      8          1           0       -2.383604    1.094710    0.000277
      9          1           0       -3.107736   -0.269562   -0.875178
     10          1           0        3.120345   -0.822043   -0.000087
     11          1           0        2.455498    0.580483    0.885338
     12          1           0        2.456035    0.581152   -0.884181
     13          1           0       -1.140919   -1.746709    0.000053
 ---------------------------------------------------------------------

 The electronic state is 2-A.
 Alpha  occ. eigenvalues --  -19.66487 -19.60905 -10.66400 -10.58606 -10.57733
 Alpha  occ. eigenvalues --  -10.54219  -1.23336  -1.13962  -0.90352  -0.82758
 Alpha  occ. eigenvalues --   -0.74009  -0.64122  -0.60022  -0.57212  -0.56148
 Alpha  occ. eigenvalues --   -0.51486  -0.50645  -0.47114  -0.46817  -0.44867
 Alpha  occ. eigenvalues --   -0.43143  -0.38326  -0.36233  -0.28845
 Alpha virt. eigenvalues --    0.01207   0.02485   0.03642   0.04684   0.05134
 Alpha virt. eigenvalues --    0.05745   0.06603   0.08026   0.08104   0.09184
 Alpha virt. eigenvalues --    0.10358   0.10394   0.11555   0.12049   0.14756

  Beta  occ. eigenvalues --  -19.66408 -19.60603 -10.66479 -10.58609 -10.57176
  Beta  occ. eigenvalues --  -10.54270  -1.22992  -1.13269  -0.88208  -0.82563
  Beta  occ. eigenvalues --   -0.72728  -0.63675  -0.59026  -0.56294  -0.55651
  Beta  occ. eigenvalues --   -0.51003  -0.48601  -0.46395  -0.45555  -0.44648
  Beta  occ. eigenvalues --   -0.42938  -0.36599  -0.35537
  Beta virt. eigenvalues --   -0.06730   0.00968   0.02522   0.03688   0.04366
  Beta virt. eigenvalues --    0.05050   0.05753   0.06513   0.08199   0.08498
  Beta virt. eigenvalues --    0.08545   0.09798   0.10622   0.12135   0.13146

 Mulliken charges and spin densities:
               1          2
     1  O   -0.171748   0.025321
     2  O   -0.425401   0.158895
     3  C   -0.472194  -0.032130
     4  C   -0.182129  -0.003519
     5  C   -0.024116   0.871219
     6  C    0.242444  -0.057700
     7  H    0.133018   0.034528
     8  H    0.167166   0.002856
     9  H    0.133037   0.034547
    10  H    0.131155   0.000036
    11  H    0.137974   0.001909
    12  H    0.138016   0.001905
    13  H    0.192778  -0.037867
 Sum of Mulliken charges =  -0.00000   1.00000

 Dipole moment (field-independent basis, Debye):
    X=             -0.3535    Y=             -1.7420    Z=              0.0006  Tot=              1.7775
 Quadrupole moment (field-independent basis, Debye-Ang):
   XX=            -28.0471   YY=            -40.3350   ZZ=            -36.2279
   XY=              1.3623   XZ=              0.0003   YZ=              0.0001

 Normal termination of Gaussian 16 at Fri Mar 29 17:26:37 2019.
