 Gaussian 16, Revision A.03,
 Gaussian 16:  EM64L-G16RevA.03 25-Dec-2016

 ----------------------------------------------
 #p m062x/6-311+g(2df,2p) Opt=(CalcFC,ModRedun)
 ----------------------------------------------

 ----------------------------------------
 Gaussian Input Prepared from Scan Object
 ----------------------------------------
 Symbolic Z-matrix:
 Charge =  0 Multiplicity = 2

 SCF Done:  E(UM062X) =  -307.020178002     A.U. after   15 cycles

  Exact polarizability:   0.000   0.000   0.000   0.000   0.000   0.000
 Approx polarizability:  67.686   0.989  68.118  -0.000  -0.000  51.380

 Optimization completed.
    -- Stationary point found.
 SCF Done:  E(UM062X) =  -307.012885617     A.U. after   13 cycles
 SCF Done:  E(UM062X) =  -307.018901743     A.U. after   13 cycles
 SCF Done:  E(UM062X) =  -307.019860020     A.U. after   13 cycles
 SCF Done:  E(UM062X) =  -307.019884722     A.U. after   12 cycles
 SCF Done:  E(UM062X) =  -307.019885006     A.U. after   10 cycles
 Optimization completed.
 SCF Done:  E(UM062X) =  -307.011557211     A.U. after   14 cycles
 SCF Done:  E(UM062X) =  -307.017875018     A.U. after   13 cycles
 SCF Done:  E(UM062X) =  -307.019472807     A.U. after   13 cycles
 SCF Done:  E(UM062X) =  -307.019572466     A.U. after   13 cycles
 SCF Done:  E(UM062X) =  -307.012383357     A.U. after   14 cycles
 SCF Done:  E(UM062X) =  -307.018730947     A.U. after   13 cycles
 SCF Done:  E(UM062X) =  -307.019880655     A.U. after   13 cycles
 SCF Done:  E(UM062X) =  -307.019901745     A.U. after   11 cycles
 SCF Done:  E(UM062X) =  -307.019902249     A.U. after    8 cycles
    -- Stationary point found.
 SCF Done:  E(UM062X) =  -307.013385000     A.U. after   13 cycles
 SCF Done:  E(UM062X) =  -307.019452405     A.U. after   13 cycles
 SCF Done:  E(UM062X) =  -307.020166882     A.U. after   13 cycles
 SCF Done:  E(UM062X) =  -307.020177675     A.U. after   10 cycles
 SCF Done:  E(UM062X) =  -307.020177992     A.U. after    8 cycles
 Optimization completed.
    -- Stationary point found.

                         Standard orientation:
 ---------------------------------------------------------------------
 Center     Atomic      Atomic             Coordinates (Angstroms)
 Number     Number       Type             X           Y           Z
 ---------------------------------------------------------------------
      1          8           0        1.110126   -0.722116    0.000009
      2          8           0        0.106483    1.291372    0.000010
      3          6           0       -2.518446    0.015730   -0.000016
      4          6           0        2.362032   -0.046691   -0.000021
      5          6           0       -1.208829   -0.668732    0.000003
      6          6           0        0.027599    0.083044    0.000032
      7          1           0       -3.107857   -0.270212    0.875133
      8          1           0       -2.384147    1.094463   -0.000019
      9          1           0       -3.107640   -0.270335   -0.875272
     10          1           0        3.120560   -0.822425   -0.000050
     11          1           0        2.456437    0.580483    0.884798
     12          1           0        2.456384    0.580502   -0.884832
     13          1           0       -1.140749   -1.746625    0.000107
 ---------------------------------------------------------------------

 The electronic state is 2-A.
 Alpha  occ. eigenvalues --  -19.66487 -19.60905 -10.66401 -10.58610 -10.57731
 Alpha  occ. eigenvalues --  -10.54218  -1.23332  -1.13962  -0.90351  -0.82759
 Alpha  occ. eigenvalues --   -0.74009  -0.64122  -0.60020  -0.57210  -0.56148
 Alpha  occ. eigenvalues --   -0.51486  -0.50646  -0.47114  -0.46819  -0.44867
 Alpha  occ. eigenvalues --   -0.43141  -0.38326  -0.36232  -0.28844
 Alpha virt. eigenvalues --    0.01207   0.02485   0.03643   0.04684   0.05134
 Alpha virt. eigenvalues --    0.05745   0.06603   0.08027   0.08103   0.09184
 Alpha virt. eigenvalues --    0.10358   0.10394   0.11556   0.12048   0.14755

  Beta  occ. eigenvalues --  -19.66409 -19.60603 -10.66479 -10.58613 -10.57175
  Beta  occ. eigenvalues --  -10.54269  -1.22988  -1.13269  -0.88207  -0.82565
  Beta  occ. eigenvalues --   -0.72729  -0.63673  -0.59024  -0.56292  -0.55651
  Beta  occ. eigenvalues --   -0.51003  -0.48602  -0.46395  -0.45558  -0.44647
  Beta  occ. eigenvalues --   -0.42936  -0.36599  -0.35536
  Beta virt. eigenvalues --   -0.06728   0.00968   0.02521   0.03688   0.04366
  Beta virt. eigenvalues --    0.05050   0.05753   0.06513   0.08199   0.08498
  Beta virt. eigenvalues --    0.08546   0.09798   0.10621   0.12135   0.13146

 Mulliken charges and spin densities:
               1          2
     1  O   -0.171738   0.025320
     2  O   -0.425390   0.158904
     3  C   -0.472212  -0.032124
     4  C   -0.182158  -0.003524
     5  C   -0.024011   0.871215
     6  C    0.242389  -0.057693
     7  H    0.133031   0.034534
     8  H    0.167148   0.002855
     9  H    0.133027   0.034532
    10  H    0.131165   0.000036
    11  H    0.137987   0.001908
    12  H    0.137987   0.001907
    13  H    0.192774  -0.037870
 Sum of Mulliken charges =  -0.00000   1.00000

 Dipole moment (field-independent basis, Debye):
    X=             -0.3517    Y=             -1.7430    Z=              0.0000  Tot=              1.7781
 Quadrupole moment (field-independent basis, Debye-Ang):
   XX=            -28.0428   YY=            -40.3365   ZZ=            -36.2278
   XY=              1.3618   XZ=             -0.0002   YZ=              0.0000

 Normal termination of Gaussian 16 at Fri Mar 29 16:53:42 2019.
