 Gaussian 16, Revision A.03,
 Gaussian 16:  EM64L-G16RevA.03 25-Dec-2016

 ----------------------------------------------
 #p m062x/6-311+g(2df,2p) Opt=(CalcFC,ModRedun)
 ----------------------------------------------

 ----------------------------------------
 Gaussian Input Prepared from Scan Object
 ----------------------------------------
 Symbolic Z-matrix:
 Charge =  0 Multiplicity = 2

 SCF Done:  E(UM062X) =  -307.020178002     A.U. after   15 cycles

  Exact polarizability:   0.000   0.000   0.000   0.000   0.000   0.000
 Approx polarizability:  67.686   0.989  68.118  -0.000  -0.000  51.380

 Optimization completed.
    -- Stationary point found.
 SCF Done:  E(UM062X) =  -307.019561391     A.U. after   13 cycles
 SCF Done:  E(UM062X) =  -307.019647226     A.U. after   12 cycles
 Optimization completed.
 SCF Done:  E(UM062X) =  -307.018015656     A.U. after   13 cycles
 SCF Done:  E(UM062X) =  -307.018123188     A.U. after   12 cycles
 SCF Done:  E(UM062X) =  -307.018123355     A.U. after    8 cycles
 SCF Done:  E(UM062X) =  -307.015658796     A.U. after   13 cycles
 SCF Done:  E(UM062X) =  -307.015808935     A.U. after   12 cycles
 SCF Done:  E(UM062X) =  -307.015809491     A.U. after    9 cycles
 SCF Done:  E(UM062X) =  -307.012800009     A.U. after   13 cycles
 SCF Done:  E(UM062X) =  -307.015816606     A.U. after   10 cycles
 SCF Done:  E(UM062X) =  -307.017987457     A.U. after   13 cycles
 SCF Done:  E(UM062X) =  -307.018125905     A.U. after   12 cycles
 SCF Done:  E(UM062X) =  -307.018126965     A.U. after   10 cycles
 SCF Done:  E(UM062X) =  -307.019545551     A.U. after   13 cycles
 SCF Done:  E(UM062X) =  -307.019647505     A.U. after   12 cycles
 SCF Done:  E(UM062X) =  -307.019647896     A.U. after    8 cycles
    -- Stationary point found.
 SCF Done:  E(UM062X) =  -307.020093466     A.U. after   13 cycles
 SCF Done:  E(UM062X) =  -307.020177859     A.U. after   12 cycles
 SCF Done:  E(UM062X) =  -307.020178001     A.U. after    8 cycles
 Optimization completed.
    -- Stationary point found.

                         Standard orientation:
 ---------------------------------------------------------------------
 Center     Atomic      Atomic             Coordinates (Angstroms)
 Number     Number       Type             X           Y           Z
 ---------------------------------------------------------------------
      1          8           0        1.110123   -0.722120    0.000001
      2          8           0        0.106437    1.291340   -0.000046
      3          6           0       -2.518375    0.015776    0.000067
      4          6           0        2.362009   -0.046640    0.000045
      5          6           0       -1.208830   -0.668830   -0.000082
      6          6           0        0.027577    0.083012   -0.000039
      7          1           0       -3.107694   -0.270161    0.875303
      8          1           0       -2.383859    1.094454    0.000112
      9          1           0       -3.107846   -0.270068   -0.875094
     10          1           0        3.120592   -0.822316    0.000128
     11          1           0        2.456245    0.580595    0.884844
     12          1           0        2.456389    0.580546   -0.884765
     13          1           0       -1.140587   -1.746718   -0.000121
 ---------------------------------------------------------------------

 The electronic state is 2-A.
 Alpha  occ. eigenvalues --  -19.66487 -19.60905 -10.66401 -10.58610 -10.57731
 Alpha  occ. eigenvalues --  -10.54218  -1.23332  -1.13962  -0.90351  -0.82759
 Alpha  occ. eigenvalues --   -0.74009  -0.64122  -0.60020  -0.57210  -0.56148
 Alpha  occ. eigenvalues --   -0.51486  -0.50645  -0.47114  -0.46818  -0.44867
 Alpha  occ. eigenvalues --   -0.43142  -0.38326  -0.36232  -0.28844
 Alpha virt. eigenvalues --    0.01207   0.02485   0.03642   0.04684   0.05134
 Alpha virt. eigenvalues --    0.05745   0.06603   0.08026   0.08103   0.09184
 Alpha virt. eigenvalues --    0.10358   0.10394   0.11556   0.12048   0.14755

  Beta  occ. eigenvalues --  -19.66409 -19.60603 -10.66479 -10.58613 -10.57175
  Beta  occ. eigenvalues --  -10.54269  -1.22988  -1.13269  -0.88207  -0.82564
  Beta  occ. eigenvalues --   -0.72728  -0.63673  -0.59024  -0.56292  -0.55651
  Beta  occ. eigenvalues --   -0.51004  -0.48601  -0.46395  -0.45557  -0.44647
  Beta  occ. eigenvalues --   -0.42936  -0.36599  -0.35536
  Beta virt. eigenvalues --   -0.06728   0.00968   0.02521   0.03688   0.04366
  Beta virt. eigenvalues --    0.05050   0.05753   0.06513   0.08199   0.08498
  Beta virt. eigenvalues --    0.08546   0.09798   0.10621   0.12134   0.13146

 Mulliken charges and spin densities:
               1          2
     1  O   -0.171749   0.025322
     2  O   -0.425402   0.158885
     3  C   -0.472209  -0.032128
     4  C   -0.182157  -0.003524
     5  C   -0.024047   0.871221
     6  C    0.242428  -0.057690
     7  H    0.133027   0.034539
     8  H    0.167165   0.002856
     9  H    0.133023   0.034536
    10  H    0.131169   0.000036
    11  H    0.137986   0.001907
    12  H    0.137990   0.001908
    13  H    0.192774  -0.037869
 Sum of Mulliken charges =  -0.00000   1.00000

 Dipole moment (field-independent basis, Debye):
    X=             -0.3515    Y=             -1.7428    Z=              0.0001  Tot=              1.7779
 Quadrupole moment (field-independent basis, Debye-Ang):
   XX=            -28.0433   YY=            -40.3362   ZZ=            -36.2280
   XY=              1.3617   XZ=             -0.0000   YZ=              0.0002

 Normal termination of Gaussian 16 at Tue Apr 23 23:20:24 2019.
