 Gaussian 16, Revision A.03,
 Gaussian 16:  EM64L-G16RevA.03 25-Dec-2016

 ----------------------------------------------
 #p m062x/6-311+g(2df,2p) Opt=(CalcFC,ModRedun)
 ----------------------------------------------

 ----------------------------------------
 Gaussian Input Prepared from Scan Object
 ----------------------------------------
 Symbolic Z-matrix:
 Charge =  0 Multiplicity = 2

 SCF Done:  E(UM062X) =  -232.954657827     A.U. after   13 cycles

  Exact polarizability:   0.000   0.000   0.000   0.000   0.000   0.000
 Approx polarizability:  61.517   0.173  60.613   0.403   0.475  59.436

 Optimization completed.
    -- Stationary point found.
 SCF Done:  E(UM062X) =  -232.947512814     A.U. after   13 cycles
 SCF Done:  E(UM062X) =  -232.953270534     A.U. after   12 cycles
 SCF Done:  E(UM062X) =  -232.953926658     A.U. after   12 cycles
 SCF Done:  E(UM062X) =  -232.953939068     A.U. after    9 cycles
 Optimization completed.
 SCF Done:  E(UM062X) =  -232.945709663     A.U. after   12 cycles
 SCF Done:  E(UM062X) =  -232.952328668     A.U. after   12 cycles
 SCF Done:  E(UM062X) =  -232.952940797     A.U. after   12 cycles
 SCF Done:  E(UM062X) =  -232.952959688     A.U. after   10 cycles
 SCF Done:  E(UM062X) =  -232.952959815     A.U. after    8 cycles
 SCF Done:  E(UM062X) =  -232.953850050     A.U. after   12 cycles
 SCF Done:  E(UM062X) =  -232.953947530     A.U. after   11 cycles
 SCF Done:  E(UM062X) =  -232.953962338     A.U. after   10 cycles
 SCF Done:  E(UM062X) =  -232.953966103     A.U. after   10 cycles
 SCF Done:  E(UM062X) =  -232.953966188     A.U. after    8 cycles
    -- Stationary point found.
 SCF Done:  E(UM062X) =  -232.947761537     A.U. after   13 cycles
 SCF Done:  E(UM062X) =  -232.953365862     A.U. after   12 cycles
 SCF Done:  E(UM062X) =  -232.954532043     A.U. after   12 cycles
 SCF Done:  E(UM062X) =  -232.954653454     A.U. after   11 cycles
 SCF Done:  E(UM062X) =  -232.954657701     A.U. after    9 cycles
 Optimization completed.
    -- Stationary point found.

                         Standard orientation:
 ---------------------------------------------------------------------
 Center     Atomic      Atomic             Coordinates (Angstroms)
 Number     Number       Type             X           Y           Z
 ---------------------------------------------------------------------
      1          8           0       -0.658013   -0.603741   -0.315775
      2          6           0        0.428709    0.042890    0.320380
      3          6           0        1.673695   -0.764113   -0.033308
      4          6           0       -1.913659   -0.113474    0.082568
      5          6           0        0.551230    1.464236   -0.110673
      6          1           0        0.277980    0.004673    1.408756
      7          1           0        2.553847   -0.338249    0.445831
      8          1           0        1.820701   -0.750880   -1.112773
      9          1           0        1.551906   -1.796428    0.292100
     10          1           0       -2.049824   -0.217111    1.164938
     11          1           0       -2.040826    0.939920   -0.184144
     12          1           0       -2.669129   -0.704864   -0.428799
     13          1           0        0.982568    2.209809    0.539488
     14          1           0        0.397028    1.705820   -1.152997
 ---------------------------------------------------------------------

 The electronic state is 2-A.
 Alpha  occ. eigenvalues --  -19.62175 -10.59115 -10.57153 -10.54415 -10.52443
 Alpha  occ. eigenvalues --   -1.16013  -0.88639  -0.78320  -0.76536  -0.66330
 Alpha  occ. eigenvalues --   -0.57857  -0.54385  -0.53341  -0.49523  -0.47817
 Alpha  occ. eigenvalues --   -0.45383  -0.43469  -0.41970  -0.38756  -0.33523
 Alpha  occ. eigenvalues --   -0.27143
 Alpha virt. eigenvalues --    0.02100   0.03269   0.03742   0.04112   0.05571
 Alpha virt. eigenvalues --    0.06799   0.06982   0.07682   0.07958   0.10005
 Alpha virt. eigenvalues --    0.10649   0.11844   0.12536   0.13499   0.14719

  Beta  occ. eigenvalues --  -19.62150 -10.59180 -10.57141 -10.53734 -10.52358
  Beta  occ. eigenvalues --   -1.15892  -0.87655  -0.76578  -0.75432  -0.65268
  Beta  occ. eigenvalues --   -0.57438  -0.53880  -0.52887  -0.49077  -0.46954
  Beta  occ. eigenvalues --   -0.45011  -0.42785  -0.41639  -0.38387  -0.33247
  Beta virt. eigenvalues --   -0.03073   0.01434   0.03324   0.03472   0.04109
  Beta virt. eigenvalues --    0.05637   0.06684   0.06912   0.07448   0.07821
  Beta virt. eigenvalues --    0.10001   0.10469   0.11579   0.12282   0.13203

 Mulliken charges and spin densities:
               1          2
     1  O   -0.134251   0.000386
     2  C   -0.176238  -0.001792
     3  C   -0.423704   0.014653
     4  C   -0.259636   0.030836
     5  C   -0.375158   1.067619
     6  H    0.165432   0.003271
     7  H    0.142786  -0.006883
     8  H    0.163082  -0.004258
     9  H    0.147665   0.011630
    10  H    0.113823  -0.002580
    11  H    0.125319  -0.013813
    12  H    0.132439  -0.000321
    13  H    0.179053  -0.042768
    14  H    0.199386  -0.055979
 Sum of Mulliken charges =  -0.00000   1.00000

 Dipole moment (field-independent basis, Debye):
    X=              0.0658    Y=              0.8129    Z=              0.8375  Tot=              1.1690
 Quadrupole moment (field-independent basis, Debye-Ang):
   XX=            -30.7166   YY=            -33.8552   ZZ=            -32.6549
   XY=             -0.0127   XZ=              0.1220   YZ=             -0.7252

 Normal termination of Gaussian 16 at Fri Mar 29 17:38:16 2019.
