 Gaussian 16, Revision A.03,
 Gaussian 16:  EM64L-G16RevA.03 25-Dec-2016

 ----------------------------------------------
 #p m062x/6-311+g(2df,2p) Opt=(CalcFC,ModRedun)
 ----------------------------------------------

 ----------------------------------------
 Gaussian Input Prepared from Scan Object
 ----------------------------------------
 Symbolic Z-matrix:
 Charge =  0 Multiplicity = 2

 SCF Done:  E(UM062X) =  -232.954657827     A.U. after   13 cycles

  Exact polarizability:   0.000   0.000   0.000   0.000   0.000   0.000
 Approx polarizability:  61.517   0.173  60.613   0.403   0.475  59.436

 Optimization completed.
    -- Stationary point found.
 SCF Done:  E(UM062X) =  -232.953185688     A.U. after   10 cycles
 SCF Done:  E(UM062X) =  -232.954313853     A.U. after   10 cycles
 SCF Done:  E(UM062X) =  -232.954331701     A.U. after    9 cycles
 Optimization completed.
 SCF Done:  E(UM062X) =  -232.952220297     A.U. after   10 cycles
 SCF Done:  E(UM062X) =  -232.953389659     A.U. after   10 cycles
 SCF Done:  E(UM062X) =  -232.953415121     A.U. after    9 cycles
 SCF Done:  E(UM062X) =  -232.950797595     A.U. after   11 cycles
 SCF Done:  E(UM062X) =  -232.952069768     A.U. after   10 cycles
 SCF Done:  E(UM062X) =  -232.952106908     A.U. after    9 cycles
 SCF Done:  E(UM062X) =  -232.952126754     A.U. after    9 cycles
 SCF Done:  E(UM062X) =  -232.952070938     A.U. after   10 cycles
 SCF Done:  E(UM062X) =  -232.953405201     A.U. after   10 cycles
 SCF Done:  E(UM062X) =  -232.953419071     A.U. after    9 cycles
 SCF Done:  E(UM062X) =  -232.953103651     A.U. after   10 cycles
 SCF Done:  E(UM062X) =  -232.954318083     A.U. after   10 cycles
 SCF Done:  E(UM062X) =  -232.954328980     A.U. after    9 cycles
    -- Stationary point found.
 SCF Done:  E(UM062X) =  -232.953500380     A.U. after   10 cycles
 SCF Done:  E(UM062X) =  -232.954646558     A.U. after   10 cycles
 SCF Done:  E(UM062X) =  -232.954657780     A.U. after    9 cycles
 Optimization completed.
    -- Stationary point found.

                         Standard orientation:
 ---------------------------------------------------------------------
 Center     Atomic      Atomic             Coordinates (Angstroms)
 Number     Number       Type             X           Y           Z
 ---------------------------------------------------------------------
      1          8           0       -0.658388   -0.603601   -0.316172
      2          6           0        0.428529    0.042698    0.319923
      3          6           0        1.673659   -0.764291   -0.033086
      4          6           0       -1.913772   -0.113160    0.082827
      5          6           0        0.551757    1.464060   -0.110693
      6          1           0        0.277744    0.004851    1.408272
      7          1           0        2.553472   -0.338091    0.446349
      8          1           0        1.821106   -0.751572   -1.112509
      9          1           0        1.551656   -1.796509    0.292601
     10          1           0       -2.049937   -0.218014    1.165075
     11          1           0       -2.040306    0.940673   -0.182480
     12          1           0       -2.669606   -0.703490   -0.429220
     13          1           0        0.984161    2.208335    0.540282
     14          1           0        0.397777    1.706783   -1.152827
 ---------------------------------------------------------------------

 The electronic state is 2-A.
 Alpha  occ. eigenvalues --  -19.62176 -10.59114 -10.57153 -10.54414 -10.52444
 Alpha  occ. eigenvalues --   -1.16014  -0.88642  -0.78319  -0.76537  -0.66329
 Alpha  occ. eigenvalues --   -0.57858  -0.54384  -0.53342  -0.49521  -0.47819
 Alpha  occ. eigenvalues --   -0.45388  -0.43470  -0.41969  -0.38757  -0.33523
 Alpha  occ. eigenvalues --   -0.27141
 Alpha virt. eigenvalues --    0.02100   0.03269   0.03742   0.04112   0.05571
 Alpha virt. eigenvalues --    0.06797   0.06982   0.07683   0.07958   0.10003
 Alpha virt. eigenvalues --    0.10648   0.11844   0.12538   0.13499   0.14721

  Beta  occ. eigenvalues --  -19.62151 -10.59178 -10.57141 -10.53733 -10.52359
  Beta  occ. eigenvalues --   -1.15893  -0.87658  -0.76580  -0.75432  -0.65267
  Beta  occ. eigenvalues --   -0.57439  -0.53879  -0.52888  -0.49074  -0.46956
  Beta  occ. eigenvalues --   -0.45016  -0.42785  -0.41638  -0.38388  -0.33247
  Beta virt. eigenvalues --   -0.03072   0.01434   0.03324   0.03471   0.04110
  Beta virt. eigenvalues --    0.05637   0.06682   0.06911   0.07450   0.07821
  Beta virt. eigenvalues --    0.09999   0.10469   0.11580   0.12285   0.13202

 Mulliken charges and spin densities:
               1          2
     1  O   -0.134322   0.000373
     2  C   -0.176386  -0.001647
     3  C   -0.423613   0.014564
     4  C   -0.259663   0.030834
     5  C   -0.375016   1.067591
     6  H    0.165441   0.003269
     7  H    0.142783  -0.006878
     8  H    0.163089  -0.004263
     9  H    0.147645   0.011637
    10  H    0.113848  -0.002572
    11  H    0.125325  -0.013825
    12  H    0.132450  -0.000327
    13  H    0.179053  -0.042795
    14  H    0.199366  -0.055962
 Sum of Mulliken charges =  -0.00000   1.00000

 Dipole moment (field-independent basis, Debye):
    X=              0.0666    Y=              0.8125    Z=              0.8382  Tot=              1.1693
 Quadrupole moment (field-independent basis, Debye-Ang):
   XX=            -30.7146   YY=            -33.8582   ZZ=            -32.6554
   XY=             -0.0128   XZ=              0.1215   YZ=             -0.7260

 Normal termination of Gaussian 16 at Tue Apr 23 23:06:57 2019.
