 Gaussian 16, Revision A.03,
 Gaussian 16:  EM64L-G16RevA.03 25-Dec-2016

 ----------------------------------------------
 #p m062x/6-311+g(2df,2p) Opt=(CalcFC,ModRedun)
 ----------------------------------------------

 ----------------------------------------
 Gaussian Input Prepared from Scan Object
 ----------------------------------------
 Symbolic Z-matrix:
 Charge =  0 Multiplicity = 2

 SCF Done:  E(UM062X) =  -232.954657827     A.U. after   13 cycles

  Exact polarizability:   0.000   0.000   0.000   0.000   0.000   0.000
 Approx polarizability:  61.517   0.173  60.613   0.403   0.475  59.436

 Optimization completed.
    -- Stationary point found.
 SCF Done:  E(UM062X) =  -232.953871548     A.U. after   11 cycles
 SCF Done:  E(UM062X) =  -232.954256066     A.U. after   10 cycles
 SCF Done:  E(UM062X) =  -232.954257517     A.U. after    8 cycles
 Optimization completed.
 SCF Done:  E(UM062X) =  -232.952647728     A.U. after   11 cycles
 SCF Done:  E(UM062X) =  -232.953074949     A.U. after   10 cycles
 SCF Done:  E(UM062X) =  -232.953077240     A.U. after    8 cycles
 SCF Done:  E(UM062X) =  -232.950772136     A.U. after   11 cycles
 SCF Done:  E(UM062X) =  -232.951307289     A.U. after   11 cycles
 SCF Done:  E(UM062X) =  -232.951312017     A.U. after    9 cycles
 SCF Done:  E(UM062X) =  -232.951929407     A.U. after    8 cycles
 SCF Done:  E(UM062X) =  -232.952716527     A.U. after   10 cycles
 SCF Done:  E(UM062X) =  -232.953266556     A.U. after   11 cycles
 SCF Done:  E(UM062X) =  -232.953268925     A.U. after    9 cycles
 SCF Done:  E(UM062X) =  -232.953825903     A.U. after   10 cycles
 SCF Done:  E(UM062X) =  -232.954276711     A.U. after   11 cycles
 SCF Done:  E(UM062X) =  -232.954278340     A.U. after    8 cycles
    -- Stationary point found.
 SCF Done:  E(UM062X) =  -232.954261886     A.U. after   10 cycles
 SCF Done:  E(UM062X) =  -232.954656511     A.U. after   11 cycles
 SCF Done:  E(UM062X) =  -232.954657816     A.U. after    8 cycles
 Optimization completed.
    -- Stationary point found.

                         Standard orientation:
 ---------------------------------------------------------------------
 Center     Atomic      Atomic             Coordinates (Angstroms)
 Number     Number       Type             X           Y           Z
 ---------------------------------------------------------------------
      1          8           0       -0.658262   -0.603666   -0.316023
      2          6           0        0.428533    0.042834    0.320143
      3          6           0        1.673515   -0.764336   -0.033131
      4          6           0       -1.913688   -0.113168    0.082675
      5          6           0        0.551755    1.464078   -0.110737
      6          1           0        0.277322    0.005103    1.408427
      7          1           0        2.553583   -0.338747    0.446407
      8          1           0        1.821006   -0.751104   -1.112521
      9          1           0        1.551369   -1.796630    0.292244
     10          1           0       -2.050143   -0.217856    1.164892
     11          1           0       -2.040199    0.940615   -0.182814
     12          1           0       -2.669410   -0.703635   -0.429375
     13          1           0        0.983646    2.208655    0.540232
     14          1           0        0.398224    1.706481   -1.153013
 ---------------------------------------------------------------------

 The electronic state is 2-A.
 Alpha  occ. eigenvalues --  -19.62176 -10.59114 -10.57152 -10.54415 -10.52443
 Alpha  occ. eigenvalues --   -1.16014  -0.88641  -0.78320  -0.76536  -0.66331
 Alpha  occ. eigenvalues --   -0.57858  -0.54385  -0.53342  -0.49522  -0.47818
 Alpha  occ. eigenvalues --   -0.45384  -0.43469  -0.41971  -0.38758  -0.33523
 Alpha  occ. eigenvalues --   -0.27142
 Alpha virt. eigenvalues --    0.02100   0.03269   0.03742   0.04112   0.05571
 Alpha virt. eigenvalues --    0.06798   0.06983   0.07682   0.07958   0.10004
 Alpha virt. eigenvalues --    0.10649   0.11844   0.12537   0.13499   0.14720

  Beta  occ. eigenvalues --  -19.62150 -10.59179 -10.57140 -10.53733 -10.52359
  Beta  occ. eigenvalues --   -1.15893  -0.87657  -0.76579  -0.75433  -0.65268
  Beta  occ. eigenvalues --   -0.57438  -0.53880  -0.52888  -0.49075  -0.46955
  Beta  occ. eigenvalues --   -0.45012  -0.42784  -0.41640  -0.38389  -0.33247
  Beta virt. eigenvalues --   -0.03072   0.01434   0.03324   0.03472   0.04109
  Beta virt. eigenvalues --    0.05637   0.06683   0.06912   0.07449   0.07820
  Beta virt. eigenvalues --    0.09999   0.10469   0.11579   0.12284   0.13203

 Mulliken charges and spin densities:
               1          2
     1  O   -0.134238   0.000385
     2  C   -0.176327  -0.001690
     3  C   -0.423723   0.014615
     4  C   -0.259682   0.030834
     5  C   -0.375030   1.067593
     6  H    0.165428   0.003254
     7  H    0.142788  -0.006876
     8  H    0.163097  -0.004264
     9  H    0.147650   0.011642
    10  H    0.113845  -0.002572
    11  H    0.125322  -0.013830
    12  H    0.132444  -0.000328
    13  H    0.179045  -0.042793
    14  H    0.199381  -0.055971
 Sum of Mulliken charges =  -0.00000   1.00000

 Dipole moment (field-independent basis, Debye):
    X=              0.0666    Y=              0.8129    Z=              0.8379  Tot=              1.1693
 Quadrupole moment (field-independent basis, Debye-Ang):
   XX=            -30.7157   YY=            -33.8576   ZZ=            -32.6545
   XY=             -0.0131   XZ=              0.1205   YZ=             -0.7256

 Normal termination of Gaussian 16 at Wed Apr 24 00:18:17 2019.
