 Gaussian 16, Revision A.03,
 Gaussian 16:  EM64L-G16RevA.03 25-Dec-2016

 ----------------------------------------------
 #p m062x/6-311+g(2df,2p) Opt=(CalcFC,ModRedun)
 ----------------------------------------------

 ----------------------------------------
 Gaussian Input Prepared from Scan Object
 ----------------------------------------
 Symbolic Z-matrix:
 Charge =  0 Multiplicity = 2

 SCF Done:  E(UM062X) =  -232.954657827     A.U. after   13 cycles

  Exact polarizability:   0.000   0.000   0.000   0.000   0.000   0.000
 Approx polarizability:  61.517   0.173  60.613   0.403   0.475  59.436

 Optimization completed.
    -- Stationary point found.
 SCF Done:  E(UM062X) =  -232.953130791     A.U. after   11 cycles
 SCF Done:  E(UM062X) =  -232.954313314     A.U. after   10 cycles
 SCF Done:  E(UM062X) =  -232.954333850     A.U. after    9 cycles
 SCF Done:  E(UM062X) =  -232.954333997     A.U. after    9 cycles
 SCF Done:  E(UM062X) =  -232.954334188     A.U. after    8 cycles
 Optimization completed.
 SCF Done:  E(UM062X) =  -232.952171720     A.U. after   11 cycles
 SCF Done:  E(UM062X) =  -232.953394208     A.U. after   10 cycles
 SCF Done:  E(UM062X) =  -232.953422874     A.U. after    9 cycles
 SCF Done:  E(UM062X) =  -232.950754956     A.U. after   11 cycles
 SCF Done:  E(UM062X) =  -232.953409943     A.U. after   10 cycles
 SCF Done:  E(UM062X) =  -232.953426813     A.U. after    9 cycles
 SCF Done:  E(UM062X) =  -232.953426977     A.U. after    8 cycles
 SCF Done:  E(UM062X) =  -232.953051450     A.U. after   10 cycles
 SCF Done:  E(UM062X) =  -232.954314190     A.U. after   10 cycles
 SCF Done:  E(UM062X) =  -232.954331398     A.U. after    9 cycles
 SCF Done:  E(UM062X) =  -232.954331410     A.U. after    6 cycles
    -- Stationary point found.
 SCF Done:  E(UM062X) =  -232.953443141     A.U. after   10 cycles
 SCF Done:  E(UM062X) =  -232.954644083     A.U. after   10 cycles
 SCF Done:  E(UM062X) =  -232.954657783     A.U. after    9 cycles
 Optimization completed.
    -- Stationary point found.

                         Standard orientation:
 ---------------------------------------------------------------------
 Center     Atomic      Atomic             Coordinates (Angstroms)
 Number     Number       Type             X           Y           Z
 ---------------------------------------------------------------------
      1          8           0       -0.658240   -0.603491   -0.316169
      2          6           0        0.428527    0.042901    0.320030
      3          6           0        1.673399   -0.764556   -0.033054
      4          6           0       -1.913697   -0.113206    0.082804
      5          6           0        0.551794    1.464192   -0.110720
      6          1           0        0.277629    0.005223    1.408356
      7          1           0        2.553452   -0.338586    0.446129
      8          1           0        1.820591   -0.751984   -1.112519
      9          1           0        1.551113   -1.796721    0.292610
     10          1           0       -2.049936   -0.218237    1.165024
     11          1           0       -2.040279    0.940656   -0.182354
     12          1           0       -2.669437   -0.703516   -0.429403
     13          1           0        0.984532    2.208405    0.540105
     14          1           0        0.398107    1.706702   -1.152953
 ---------------------------------------------------------------------

 The electronic state is 2-A.
 Alpha  occ. eigenvalues --  -19.62176 -10.59113 -10.57153 -10.54415 -10.52443
 Alpha  occ. eigenvalues --   -1.16015  -0.88640  -0.78321  -0.76536  -0.66330
 Alpha  occ. eigenvalues --   -0.57858  -0.54384  -0.53342  -0.49520  -0.47818
 Alpha  occ. eigenvalues --   -0.45388  -0.43468  -0.41968  -0.38759  -0.33523
 Alpha  occ. eigenvalues --   -0.27143
 Alpha virt. eigenvalues --    0.02100   0.03269   0.03742   0.04112   0.05571
 Alpha virt. eigenvalues --    0.06798   0.06982   0.07682   0.07958   0.10003
 Alpha virt. eigenvalues --    0.10648   0.11844   0.12538   0.13498   0.14721

  Beta  occ. eigenvalues --  -19.62151 -10.59178 -10.57141 -10.53733 -10.52358
  Beta  occ. eigenvalues --   -1.15894  -0.87656  -0.76579  -0.75434  -0.65267
  Beta  occ. eigenvalues --   -0.57439  -0.53880  -0.52888  -0.49073  -0.46956
  Beta  occ. eigenvalues --   -0.45016  -0.42784  -0.41637  -0.38390  -0.33247
  Beta virt. eigenvalues --   -0.03074   0.01434   0.03324   0.03472   0.04109
  Beta virt. eigenvalues --    0.05638   0.06683   0.06911   0.07450   0.07820
  Beta virt. eigenvalues --    0.09999   0.10469   0.11579   0.12285   0.13203

 Mulliken charges and spin densities:
               1          2
     1  O   -0.134267   0.000376
     2  C   -0.176326  -0.001654
     3  C   -0.423641   0.014613
     4  C   -0.259691   0.030836
     5  C   -0.375048   1.067525
     6  H    0.165421   0.003267
     7  H    0.142755  -0.006879
     8  H    0.163098  -0.004261
     9  H    0.147668   0.011627
    10  H    0.113849  -0.002570
    11  H    0.125332  -0.013829
    12  H    0.132446  -0.000328
    13  H    0.179041  -0.042778
    14  H    0.199361  -0.055945
 Sum of Mulliken charges =  -0.00000   1.00000

 Dipole moment (field-independent basis, Debye):
    X=              0.0665    Y=              0.8123    Z=              0.8380  Tot=              1.1690
 Quadrupole moment (field-independent basis, Debye-Ang):
   XX=            -30.7155   YY=            -33.8576   ZZ=            -32.6552
   XY=             -0.0114   XZ=              0.1212   YZ=             -0.7256

 Normal termination of Gaussian 16 at Wed Mar 13 16:03:14 2019.
