 Gaussian 16, Revision A.03,
 Gaussian 16:  EM64L-G16RevA.03 25-Dec-2016

 ----------------------------------------------
 #p m062x/6-311+g(2df,2p) Opt=(CalcFC,ModRedun)
 ----------------------------------------------

 ----------------------------------------
 Gaussian Input Prepared from Scan Object
 ----------------------------------------
 Symbolic Z-matrix:
 Charge =  0 Multiplicity = 2

 SCF Done:  E(UM062X) =  -232.954657827     A.U. after   13 cycles

  Exact polarizability:   0.000   0.000   0.000   0.000   0.000   0.000
 Approx polarizability:  61.517   0.173  60.613   0.403   0.475  59.436

 Optimization completed.
    -- Stationary point found.
 SCF Done:  E(UM062X) =  -232.941138816     A.U. after   12 cycles
 SCF Done:  E(UM062X) =  -232.949734067     A.U. after   11 cycles
 SCF Done:  E(UM062X) =  -232.952088467     A.U. after   11 cycles
 SCF Done:  E(UM062X) =  -232.952117273     A.U. after   10 cycles
 SCF Done:  E(UM062X) =  -232.952118057     A.U. after    9 cycles
 SCF Done:  E(UM062X) =  -232.952118460     A.U. after    9 cycles
 Optimization completed.
 SCF Done:  E(UM062X) =  -232.934525440     A.U. after   12 cycles
 SCF Done:  E(UM062X) =  -232.944760448     A.U. after   12 cycles
 SCF Done:  E(UM062X) =  -232.949227269     A.U. after   11 cycles
 SCF Done:  E(UM062X) =  -232.947685015     A.U. after   12 cycles
 SCF Done:  E(UM062X) =  -232.952054214     A.U. after   11 cycles
 SCF Done:  E(UM062X) =  -232.952138186     A.U. after   10 cycles
 SCF Done:  E(UM062X) =  -232.952138913     A.U. after    8 cycles
 SCF Done:  E(UM062X) =  -232.952138961     A.U. after    7 cycles
    -- Stationary point found.
 SCF Done:  E(UM062X) =  -232.942968525     A.U. after   11 cycles
 SCF Done:  E(UM062X) =  -232.952441654     A.U. after   11 cycles
 SCF Done:  E(UM062X) =  -232.954632398     A.U. after   11 cycles
 SCF Done:  E(UM062X) =  -232.954657503     A.U. after   10 cycles
 SCF Done:  E(UM062X) =  -232.954657824     A.U. after    8 cycles
 Optimization completed.
    -- Stationary point found.

                         Standard orientation:
 ---------------------------------------------------------------------
 Center     Atomic      Atomic             Coordinates (Angstroms)
 Number     Number       Type             X           Y           Z
 ---------------------------------------------------------------------
      1          8           0       -0.658197   -0.603818   -0.315878
      2          6           0        0.428555    0.042864    0.320145
      3          6           0        1.673621   -0.764216   -0.033198
      4          6           0       -1.913680   -0.113244    0.082649
      5          6           0        0.551565    1.464108   -0.110771
      6          1           0        0.277607    0.005247    1.408472
      7          1           0        2.553679   -0.338344    0.446099
      8          1           0        1.820808   -0.751230   -1.112613
      9          1           0        1.551738   -1.796466    0.292425
     10          1           0       -2.049990   -0.217493    1.164936
     11          1           0       -2.040285    0.940421   -0.183274
     12          1           0       -2.669368   -0.703947   -0.429185
     13          1           0        0.983456    2.208701    0.540174
     14          1           0        0.397559    1.706587   -1.152958
 ---------------------------------------------------------------------

 The electronic state is 2-A.
 Alpha  occ. eigenvalues --  -19.62176 -10.59114 -10.57153 -10.54414 -10.52443
 Alpha  occ. eigenvalues --   -1.16014  -0.88640  -0.78321  -0.76536  -0.66330
 Alpha  occ. eigenvalues --   -0.57858  -0.54384  -0.53342  -0.49522  -0.47819
 Alpha  occ. eigenvalues --   -0.45384  -0.43468  -0.41971  -0.38758  -0.33523
 Alpha  occ. eigenvalues --   -0.27141
 Alpha virt. eigenvalues --    0.02100   0.03269   0.03742   0.04112   0.05571
 Alpha virt. eigenvalues --    0.06798   0.06982   0.07683   0.07958   0.10004
 Alpha virt. eigenvalues --    0.10648   0.11844   0.12537   0.13499   0.14719

  Beta  occ. eigenvalues --  -19.62151 -10.59179 -10.57141 -10.53733 -10.52359
  Beta  occ. eigenvalues --   -1.15893  -0.87656  -0.76579  -0.75434  -0.65267
  Beta  occ. eigenvalues --   -0.57439  -0.53879  -0.52888  -0.49075  -0.46956
  Beta  occ. eigenvalues --   -0.45013  -0.42784  -0.41640  -0.38389  -0.33247
  Beta virt. eigenvalues --   -0.03072   0.01434   0.03324   0.03471   0.04109
  Beta virt. eigenvalues --    0.05637   0.06683   0.06911   0.07449   0.07820
  Beta virt. eigenvalues --    0.10000   0.10469   0.11579   0.12284   0.13203

 Mulliken charges and spin densities:
               1          2
     1  O   -0.134269   0.000382
     2  C   -0.176323  -0.001688
     3  C   -0.423728   0.014623
     4  C   -0.259672   0.030829
     5  C   -0.375023   1.067578
     6  H    0.165443   0.003261
     7  H    0.142779  -0.006878
     8  H    0.163107  -0.004264
     9  H    0.147652   0.011638
    10  H    0.113845  -0.002575
    11  H    0.125321  -0.013820
    12  H    0.132446  -0.000326
    13  H    0.179049  -0.042795
    14  H    0.199373  -0.055967
 Sum of Mulliken charges =  -0.00000   1.00000

 Dipole moment (field-independent basis, Debye):
    X=              0.0661    Y=              0.8132    Z=              0.8376  Tot=              1.1693
 Quadrupole moment (field-independent basis, Debye-Ang):
   XX=            -30.7159   YY=            -33.8579   ZZ=            -32.6542
   XY=             -0.0136   XZ=              0.1218   YZ=             -0.7253

 Normal termination of Gaussian 16 at Fri Mar 29 16:49:12 2019.
