 Gaussian 16, Revision A.03,
 Gaussian 16:  EM64L-G16RevA.03 25-Dec-2016

 ----------------------------------------------
 #p m062x/6-311+g(2df,2p) Opt=(CalcFC,ModRedun)
 ----------------------------------------------

 ----------------------------------------
 Gaussian Input Prepared from Scan Object
 ----------------------------------------
 Symbolic Z-matrix:
 Charge =  0 Multiplicity = 2

 SCF Done:  E(UM062X) =  -232.954657827     A.U. after   13 cycles

  Exact polarizability:   0.000   0.000   0.000   0.000   0.000   0.000
 Approx polarizability:  61.517   0.173  60.613   0.403   0.475  59.436

 Optimization completed.
    -- Stationary point found.
 SCF Done:  E(UM062X) =  -232.953537814     A.U. after   10 cycles
 SCF Done:  E(UM062X) =  -232.954461797     A.U. after   11 cycles
 SCF Done:  E(UM062X) =  -232.954463061     A.U. after    9 cycles
 SCF Done:  E(UM062X) =  -232.954463451     A.U. after    9 cycles
 SCF Done:  E(UM062X) =  -232.954463475     A.U. after    7 cycles
 Optimization completed.
 SCF Done:  E(UM062X) =  -232.952978266     A.U. after   10 cycles
 SCF Done:  E(UM062X) =  -232.953916749     A.U. after   10 cycles
 SCF Done:  E(UM062X) =  -232.953919963     A.U. after    9 cycles
 SCF Done:  E(UM062X) =  -232.952139718     A.U. after   11 cycles
 SCF Done:  E(UM062X) =  -232.953935336     A.U. after   10 cycles
 SCF Done:  E(UM062X) =  -232.953936423     A.U. after    8 cycles
 SCF Done:  E(UM062X) =  -232.953936432     A.U. after    7 cycles
 SCF Done:  E(UM062X) =  -232.953488957     A.U. after   10 cycles
 SCF Done:  E(UM062X) =  -232.954471408     A.U. after   10 cycles
 SCF Done:  E(UM062X) =  -232.954472749     A.U. after    8 cycles
 SCF Done:  E(UM062X) =  -232.954472754     A.U. after    6 cycles
    -- Stationary point found.
 SCF Done:  E(UM062X) =  -232.953713461     A.U. after   10 cycles
 SCF Done:  E(UM062X) =  -232.954656449     A.U. after   11 cycles
 SCF Done:  E(UM062X) =  -232.954657818     A.U. after    9 cycles
 Optimization completed.
    -- Stationary point found.

                         Standard orientation:
 ---------------------------------------------------------------------
 Center     Atomic      Atomic             Coordinates (Angstroms)
 Number     Number       Type             X           Y           Z
 ---------------------------------------------------------------------
      1          8           0       -0.658271   -0.603720   -0.315876
      2          6           0        0.428558    0.042824    0.320139
      3          6           0        1.673558   -0.764315   -0.033210
      4          6           0       -1.913736   -0.113160    0.082646
      5          6           0        0.551697    1.464105   -0.110716
      6          1           0        0.277600    0.005159    1.408465
      7          1           0        2.553690   -0.338506    0.446005
      8          1           0        1.820749   -0.751346   -1.112650
      9          1           0        1.551562   -1.796555    0.292380
     10          1           0       -2.050024   -0.217622    1.164928
     11          1           0       -2.040356    0.940525   -0.183128
     12          1           0       -2.669431   -0.703727   -0.429323
     13          1           0        0.984189    2.208490    0.540073
     14          1           0        0.397733    1.706623   -1.152902
 ---------------------------------------------------------------------

 The electronic state is 2-A.
 Alpha  occ. eigenvalues --  -19.62176 -10.59114 -10.57152 -10.54415 -10.52444
 Alpha  occ. eigenvalues --   -1.16014  -0.88641  -0.78320  -0.76536  -0.66330
 Alpha  occ. eigenvalues --   -0.57858  -0.54384  -0.53342  -0.49522  -0.47818
 Alpha  occ. eigenvalues --   -0.45385  -0.43469  -0.41971  -0.38757  -0.33522
 Alpha  occ. eigenvalues --   -0.27142
 Alpha virt. eigenvalues --    0.02100   0.03269   0.03742   0.04112   0.05571
 Alpha virt. eigenvalues --    0.06798   0.06982   0.07683   0.07958   0.10004
 Alpha virt. eigenvalues --    0.10648   0.11844   0.12537   0.13498   0.14720

  Beta  occ. eigenvalues --  -19.62150 -10.59179 -10.57141 -10.53733 -10.52359
  Beta  occ. eigenvalues --   -1.15893  -0.87657  -0.76579  -0.75433  -0.65267
  Beta  occ. eigenvalues --   -0.57439  -0.53879  -0.52888  -0.49075  -0.46955
  Beta  occ. eigenvalues --   -0.45013  -0.42784  -0.41640  -0.38388  -0.33247
  Beta virt. eigenvalues --   -0.03073   0.01434   0.03324   0.03471   0.04110
  Beta virt. eigenvalues --    0.05637   0.06683   0.06911   0.07450   0.07820
  Beta virt. eigenvalues --    0.10000   0.10469   0.11579   0.12284   0.13203

 Mulliken charges and spin densities:
               1          2
     1  O   -0.134254   0.000371
     2  C   -0.176315  -0.001674
     3  C   -0.423717   0.014612
     4  C   -0.259672   0.030827
     5  C   -0.375024   1.067561
     6  H    0.165429   0.003266
     7  H    0.142783  -0.006875
     8  H    0.163102  -0.004264
     9  H    0.147655   0.011638
    10  H    0.113837  -0.002574
    11  H    0.125324  -0.013819
    12  H    0.132445  -0.000325
    13  H    0.179043  -0.042785
    14  H    0.199365  -0.055959
 Sum of Mulliken charges =  -0.00000   1.00000

 Dipole moment (field-independent basis, Debye):
    X=              0.0666    Y=              0.8129    Z=              0.8374  Tot=              1.1690
 Quadrupole moment (field-independent basis, Debye-Ang):
   XX=            -30.7146   YY=            -33.8585   ZZ=            -32.6546
   XY=             -0.0129   XZ=              0.1220   YZ=             -0.7258

 Normal termination of Gaussian 16 at Tue Apr 23 23:08:06 2019.
