 Gaussian 16, Revision A.03,
 Gaussian 16:  EM64L-G16RevA.03 25-Dec-2016

 ----------------------------------------------------------------------
 #p m062x/6-311+g(2df,2p) opt=(calcfc,verytight,gdiis,maxcycles=900) fr
 eq iop(7/33=1,2/16=3)
 ----------------------------------------------------------------------

 ------------------------------
 Gaussian input prepared by ASE
 ------------------------------
 Symbolic Z-matrix:
 Charge =  0 Multiplicity = 2

 SCF Done:  E(UM062X) =  -232.954657682     A.U. after   13 cycles
 SCF Done:  E(UM062X) =  -232.954657827     A.U. after    7 cycles
 SCF Done:  E(UM062X) =  -232.954657827     A.U. after    4 cycles
 SCF Done:  E(UM062X) =  -232.954657827     A.U. after    3 cycles
 SCF Done:  E(UM062X) =  -232.954657827     A.U. after    3 cycles
 SCF Done:  E(UM062X) =  -232.954657827     A.U. after    2 cycles
 Optimization completed.
    -- Stationary point found.
 Normal termination of Gaussian 16 at Wed Mar 13 04:27:49 2019.

 ----------------------------------------------------------------------
 #P Geom=AllCheck Guess=TCheck SCRF=Check Test GenChk UM062X/6-311+G(2d
 f,2p) Freq
 ----------------------------------------------------------------------

 Structure from the checkpoint file:  "/scratch/underkoffler.c/gaussian_scratch/Gau-31772.chk"
 ------------------------------
 Gaussian input prepared by ASE
 ------------------------------
 Charge =  0 Multiplicity = 2

                         Standard orientation:
 ---------------------------------------------------------------------
 Center     Atomic      Atomic             Coordinates (Angstroms)
 Number     Number       Type             X           Y           Z
 ---------------------------------------------------------------------
      1          8           0       -0.658214   -0.603707   -0.316013
      2          6           0        0.428566    0.042836    0.320124
      3          6           0        1.673605   -0.764260   -0.033123
      4          6           0       -1.913692   -0.113270    0.082694
      5          6           0        0.551617    1.464119   -0.110767
      6          1           0        0.277487    0.005167    1.408429
      7          1           0        2.553687   -0.338441    0.446174
      8          1           0        1.820889   -0.751272   -1.112551
      9          1           0        1.551611   -1.796512    0.292432
     10          1           0       -2.050006   -0.217900    1.164944
     11          1           0       -2.040279    0.940493   -0.182860
     12          1           0       -2.669392   -0.703777   -0.429345
     13          1           0        0.983170    2.208783    0.540322
     14          1           0        0.397964    1.706560   -1.153015
 ---------------------------------------------------------------------

 SCF Done:  E(UM062X) =  -232.954657827     A.U. after    1 cycles

 The electronic state is 2-A.
 Alpha  occ. eigenvalues --  -19.62176 -10.59114 -10.57153 -10.54414 -10.52443
 Alpha  occ. eigenvalues --   -1.16013  -0.88640  -0.78320  -0.76536  -0.66330
 Alpha  occ. eigenvalues --   -0.57858  -0.54384  -0.53342  -0.49522  -0.47818
 Alpha  occ. eigenvalues --   -0.45384  -0.43469  -0.41970  -0.38757  -0.33523
 Alpha  occ. eigenvalues --   -0.27142
 Alpha virt. eigenvalues --    0.02099   0.03269   0.03742   0.04112   0.05571
 Alpha virt. eigenvalues --    0.06798   0.06982   0.07682   0.07958   0.10004
 Alpha virt. eigenvalues --    0.10649   0.11844   0.12537   0.13499   0.14720

  Beta  occ. eigenvalues --  -19.62150 -10.59179 -10.57141 -10.53733 -10.52359
  Beta  occ. eigenvalues --   -1.15892  -0.87656  -0.76579  -0.75433  -0.65267
  Beta  occ. eigenvalues --   -0.57438  -0.53879  -0.52888  -0.49075  -0.46956
  Beta  occ. eigenvalues --   -0.45013  -0.42785  -0.41640  -0.38389  -0.33247
  Beta virt. eigenvalues --   -0.03072   0.01434   0.03324   0.03472   0.04109
  Beta virt. eigenvalues --    0.05637   0.06683   0.06911   0.07449   0.07820
  Beta virt. eigenvalues --    0.09999   0.10469   0.11579   0.12284   0.13203

 Mulliken charges and spin densities:
               1          2
     1  O   -0.134263   0.000389
     2  C   -0.176316  -0.001692
     3  C   -0.423708   0.014610
     4  C   -0.259670   0.030835
     5  C   -0.375057   1.067609
     6  H    0.165438   0.003252
     7  H    0.142783  -0.006880
     8  H    0.163098  -0.004261
     9  H    0.147651   0.011637
    10  H    0.113847  -0.002573
    11  H    0.125320  -0.013829
    12  H    0.132449  -0.000328
    13  H    0.179050  -0.042797
    14  H    0.199380  -0.055972
 Sum of Mulliken charges =  -0.00000   1.00000

 Dipole moment (field-independent basis, Debye):
    X=              0.0662    Y=              0.8130    Z=              0.8379  Tot=              1.1694
 Quadrupole moment (field-independent basis, Debye-Ang):
   XX=            -30.7160   YY=            -33.8575   ZZ=            -32.6544
   XY=             -0.0136   XZ=              0.1209   YZ=             -0.7253

  Exact polarizability:  60.557  -0.554  54.532  -0.133  -0.269  48.625
 Approx polarizability:  61.517   0.173  60.613   0.403   0.475  59.436

                      1                      2                      3
                      A                      A                      A
 Frequencies --    105.8838               126.0814               211.8036
 Red. masses --      1.2708                 1.3214                 1.3368
 Frc consts  --      0.0084                 0.0124                 0.0353
 IR Inten    --      2.6362                 2.0672                 3.3234

                      4                      5                      6
                      A                      A                      A
 Frequencies --    244.6215               292.2005               335.6267
 Red. masses --      1.1002                 2.3076                 1.7518
 Frc consts  --      0.0388                 0.1161                 0.1163
 IR Inten    --      0.2227                 2.5171                 7.2674

                      7                      8                      9
                      A                      A                      A
 Frequencies --    468.2680               475.0302               552.1408
 Red. masses --      2.2564                 2.1102                 2.3807
 Frc consts  --      0.2915                 0.2806                 0.4276
 IR Inten    --      8.9714                 8.8292                26.0237

                     10                     11                     12
                      A                      A                      A
 Frequencies --    840.3244               921.7601               952.3570
 Red. masses --      2.4609                 1.2673                 1.7684
 Frc consts  --      1.0238                 0.6344                 0.9450
 IR Inten    --      9.1205                 2.3616                 4.3423

                     13                     14                     15
                      A                      A                      A
 Frequencies --   1072.9459              1143.5415              1157.2851
 Red. masses --      3.1487                 1.6638                 1.9782
 Frc consts  --      2.1357                 1.2819                 1.5610
 IR Inten    --      7.7165                 4.8273                11.4403

                     16                     17                     18
                      A                      A                      A
 Frequencies --   1187.3134              1190.4699              1250.1631
 Red. masses --      1.4317                 3.7664                 1.9123
 Frc consts  --      1.1892                 3.1450                 1.7610
 IR Inten    --     19.6803               124.9113                44.0435

                     19                     20                     21
                      A                      A                      A
 Frequencies --   1343.6589              1381.0967              1399.4671
 Red. masses --      1.3376                 1.2187                 1.2616
 Frc consts  --      1.4228                 1.3696                 1.4557
 IR Inten    --      4.3060                17.1747                 8.6746

                     22                     23                     24
                      A                      A                      A
 Frequencies --   1452.5432              1483.2110              1488.2642
 Red. masses --      1.2220                 1.1426                 1.0566
 Frc consts  --      1.5190                 1.4810                 1.3788
 IR Inten    --      9.6229                 1.2293                 3.4987

                     25                     26                     27
                      A                      A                      A
 Frequencies --   1498.4666              1501.4147              1517.4486
 Red. masses --      1.0446                 1.0763                 1.0505
 Frc consts  --      1.3819                 1.4295                 1.4253
 IR Inten    --      7.7579                 2.6484                 8.0121

                     28                     29                     30
                      A                      A                      A
 Frequencies --   2989.1893              3017.8409              3068.3461
 Red. masses --      1.0820                 1.0384                 1.0335
 Frc consts  --      5.6964                 5.5719                 5.7327
 IR Inten    --     35.2719                52.8697                13.4871

                     31                     32                     33
                      A                      A                      A
 Frequencies --   3070.8802              3147.5420              3150.3073
 Red. masses --      1.1013                 1.1036                 1.1029
 Frc consts  --      6.1191                 6.4416                 6.4490
 IR Inten    --     36.5268                15.6956                10.0370

                     34                     35                     36
                      A                      A                      A
 Frequencies --   3150.8136              3167.2975              3278.0996
 Red. masses --      1.0979                 1.0511                 1.1193
 Frc consts  --      6.4221                 6.2124                 7.0865
 IR Inten    --     25.6421                 4.2319                 4.2528

 - Thermochemistry -
 -------------------
 Temperature   298.150 Kelvin.  Pressure   1.00000 Atm.
 Atom     1 has atomic number  8 and mass  15.99491

 Molecular mass:    73.06534 amu.
 Principal axes and moments of inertia in atomic units:
                           1         2         3
     Eigenvalues --   220.37645 461.89078 612.31841
           X            0.99964  -0.02584  -0.00721
           Y            0.02572   0.99953  -0.01656
           Z            0.00764   0.01637   0.99984
 This molecule is an asymmetric top.
 Rotational symmetry number  1.
 Rotational temperatures (Kelvin)      0.39303     0.18752     0.14145
 Rotational constants (GHZ):           8.18936     3.90729     2.94739
 Zero-point vibrational energy     320800.8 (Joules/Mol)
                                   76.67323 (Kcal/Mol)
 Warning -- explicit consideration of   9 degrees of freedom as
           vibrations may cause significant error
 Vibrational temperatures:    152.34   181.40   304.74   351.96   420.41
          (Kelvin)            482.89   673.73   683.46   794.41  1209.04
                             1326.21  1370.23  1543.73  1645.30  1665.08
                             1708.28  1712.82  1798.71  1933.23  1987.09
                             2013.52  2089.89  2134.01  2141.28  2155.96
                             2160.20  2183.27  4300.78  4342.00  4414.67
                             4418.31  4528.61  4532.59  4533.32  4557.03
                             4716.45

 Zero-point correction=                           0.122187 (Hartree/Particle)
 Thermal correction to Energy=                    0.129287
 Thermal correction to Enthalpy=                  0.130231
 Thermal correction to Gibbs Free Energy=         0.091515
 Sum of electronic and zero-point Energies=           -232.832471
 Sum of electronic and thermal Energies=              -232.825371
 Sum of electronic and thermal Enthalpies=            -232.824426
 Sum of electronic and thermal Free Energies=         -232.863142

                     E (Thermal)             CV                S
                      KCal/Mol        Cal/Mol-Kelvin    Cal/Mol-Kelvin
 Total                   81.129             24.167             81.484
 Electronic               0.000              0.000              1.377
 Translational            0.889              2.981             38.783
 Rotational               0.889              2.981             25.636
 Vibrational             79.351             18.206             15.689
 Vibration     1          0.605              1.945              3.343
 Vibration     2          0.611              1.927              3.005
 Vibration     3          0.643              1.823              2.028
 Vibration     4          0.660              1.772              1.769
 Vibration     5          0.688              1.688              1.461
 Vibration     6          0.717              1.604              1.233
 Vibration     7          0.825              1.320              0.742
 Vibration     8          0.832              1.305              0.724
 Vibration     9          0.907              1.135              0.540

                           ! Non-Optimized Parameters !
 Normal termination of Gaussian 16 at Wed Mar 13 04:33:14 2019.
