 Gaussian 16, Revision A.03,
 Gaussian 16:  EM64L-G16RevA.03 25-Dec-2016

 ----------------------------------------------
 #p m062x/6-311+g(2df,2p) Opt=(CalcFC,ModRedun)
 ----------------------------------------------

 ----------------------------------------
 Gaussian Input Prepared from Scan Object
 ----------------------------------------
 Symbolic Z-matrix:
 Charge =  0 Multiplicity = 2

 SCF Done:  E(UM062X) =  -232.954657827     A.U. after   13 cycles

  Exact polarizability:   0.000   0.000   0.000   0.000   0.000   0.000
 Approx polarizability:  61.517   0.173  60.613   0.403   0.475  59.436

 Optimization completed.
    -- Stationary point found.
 SCF Done:  E(UM062X) =  -232.953533121     A.U. after   10 cycles
 SCF Done:  E(UM062X) =  -232.954459601     A.U. after   10 cycles
 SCF Done:  E(UM062X) =  -232.954461364     A.U. after    8 cycles
 Optimization completed.
 SCF Done:  E(UM062X) =  -232.952936140     A.U. after   10 cycles
 SCF Done:  E(UM062X) =  -232.953899506     A.U. after   10 cycles
 SCF Done:  E(UM062X) =  -232.953902160     A.U. after    8 cycles
 SCF Done:  E(UM062X) =  -232.952063247     A.U. after   11 cycles
 SCF Done:  E(UM062X) =  -232.953100638     A.U. after   10 cycles
 SCF Done:  E(UM062X) =  -232.953104258     A.U. after    8 cycles
 SCF Done:  E(UM062X) =  -232.953120425     A.U. after    8 cycles
 SCF Done:  E(UM062X) =  -232.952867029     A.U. after   11 cycles
 SCF Done:  E(UM062X) =  -232.953902847     A.U. after   10 cycles
 SCF Done:  E(UM062X) =  -232.953903147     A.U. after    8 cycles
 SCF Done:  E(UM062X) =  -232.953494551     A.U. after   11 cycles
 SCF Done:  E(UM062X) =  -232.954455745     A.U. after   10 cycles
 SCF Done:  E(UM062X) =  -232.954456530     A.U. after    8 cycles
    -- Stationary point found.
 SCF Done:  E(UM062X) =  -232.953734136     A.U. after   10 cycles
 SCF Done:  E(UM062X) =  -232.954656968     A.U. after   10 cycles
 SCF Done:  E(UM062X) =  -232.954657826     A.U. after    8 cycles
 Optimization completed.
    -- Stationary point found.

                         Standard orientation:
 ---------------------------------------------------------------------
 Center     Atomic      Atomic             Coordinates (Angstroms)
 Number     Number       Type             X           Y           Z
 ---------------------------------------------------------------------
      1          8           0       -0.658224   -0.603686   -0.316016
      2          6           0        0.428562    0.042835    0.320128
      3          6           0        1.673585   -0.764285   -0.033128
      4          6           0       -1.913701   -0.113252    0.082694
      5          6           0        0.551653    1.464116   -0.110759
      6          1           0        0.277491    0.005154    1.408434
      7          1           0        2.553675   -0.338487    0.446172
      8          1           0        1.820867   -0.751293   -1.112555
      9          1           0        1.551569   -1.796536    0.292421
     10          1           0       -2.050015   -0.217915    1.164942
     11          1           0       -2.040280    0.940512   -0.182852
     12          1           0       -2.669408   -0.703742   -0.429349
     13          1           0        0.983304    2.208745    0.540307
     14          1           0        0.397998    1.706561   -1.153006
 ---------------------------------------------------------------------

 The electronic state is 2-A.
 Alpha  occ. eigenvalues --  -19.62176 -10.59114 -10.57153 -10.54414 -10.52443
 Alpha  occ. eigenvalues --   -1.16013  -0.88640  -0.78320  -0.76536  -0.66330
 Alpha  occ. eigenvalues --   -0.57858  -0.54384  -0.53342  -0.49522  -0.47818
 Alpha  occ. eigenvalues --   -0.45384  -0.43469  -0.41970  -0.38757  -0.33523
 Alpha  occ. eigenvalues --   -0.27142
 Alpha virt. eigenvalues --    0.02100   0.03269   0.03742   0.04112   0.05571
 Alpha virt. eigenvalues --    0.06798   0.06982   0.07682   0.07958   0.10004
 Alpha virt. eigenvalues --    0.10649   0.11844   0.12537   0.13499   0.14720

  Beta  occ. eigenvalues --  -19.62150 -10.59179 -10.57141 -10.53733 -10.52359
  Beta  occ. eigenvalues --   -1.15892  -0.87656  -0.76579  -0.75433  -0.65267
  Beta  occ. eigenvalues --   -0.57438  -0.53879  -0.52888  -0.49075  -0.46956
  Beta  occ. eigenvalues --   -0.45013  -0.42785  -0.41640  -0.38389  -0.33247
  Beta virt. eigenvalues --   -0.03072   0.01434   0.03324   0.03472   0.04109
  Beta virt. eigenvalues --    0.05637   0.06683   0.06911   0.07449   0.07820
  Beta virt. eigenvalues --    0.09999   0.10469   0.11579   0.12284   0.13203

 Mulliken charges and spin densities:
               1          2
     1  O   -0.134261   0.000388
     2  C   -0.176318  -0.001692
     3  C   -0.423703   0.014611
     4  C   -0.259669   0.030834
     5  C   -0.375059   1.067605
     6  H    0.165436   0.003253
     7  H    0.142782  -0.006879
     8  H    0.163098  -0.004262
     9  H    0.147651   0.011637
    10  H    0.113845  -0.002573
    11  H    0.125320  -0.013829
    12  H    0.132449  -0.000328
    13  H    0.179049  -0.042796
    14  H    0.199380  -0.055971
 Sum of Mulliken charges =  -0.00000   1.00000

 Dipole moment (field-independent basis, Debye):
    X=              0.0662    Y=              0.8129    Z=              0.8379  Tot=              1.1693
 Quadrupole moment (field-independent basis, Debye-Ang):
   XX=            -30.7158   YY=            -33.8575   ZZ=            -32.6544
   XY=             -0.0135   XZ=              0.1210   YZ=             -0.7254

 Normal termination of Gaussian 16 at Tue Apr 23 23:21:36 2019.
