 Gaussian 16, Revision A.03,
 Gaussian 16:  EM64L-G16RevA.03 25-Dec-2016

 ----------------------------------------------
 #p m062x/6-311+g(2df,2p) Opt=(CalcFC,ModRedun)
 ----------------------------------------------

 ----------------------------------------
 Gaussian Input Prepared from Scan Object
 ----------------------------------------
 Symbolic Z-matrix:
 Charge =  0 Multiplicity = 2

 SCF Done:  E(UM062X) =  -232.954657827     A.U. after   13 cycles

  Exact polarizability:   0.000   0.000   0.000   0.000   0.000   0.000
 Approx polarizability:  61.517   0.173  60.613   0.403   0.475  59.436

 Optimization completed.
    -- Stationary point found.
 SCF Done:  E(UM062X) =  -232.946208130     A.U. after   13 cycles
 SCF Done:  E(UM062X) =  -232.951182518     A.U. after   11 cycles
 SCF Done:  E(UM062X) =  -232.951592981     A.U. after   12 cycles
 SCF Done:  E(UM062X) =  -232.951628609     A.U. after   10 cycles
 SCF Done:  E(UM062X) =  -232.951631115     A.U. after   10 cycles
 SCF Done:  E(UM062X) =  -232.951631790     A.U. after    9 cycles
 Optimization completed.
 SCF Done:  E(UM062X) =  -232.938791532     A.U. after   12 cycles
 SCF Done:  E(UM062X) =  -232.946209359     A.U. after   12 cycles
 SCF Done:  E(UM062X) =  -232.947043735     A.U. after   12 cycles
 SCF Done:  E(UM062X) =  -232.952078112     A.U. after   12 cycles
 SCF Done:  E(UM062X) =  -232.952074896     A.U. after    9 cycles
 SCF Done:  E(UM062X) =  -232.952081242     A.U. after   10 cycles
 SCF Done:  E(UM062X) =  -232.952081326     A.U. after    8 cycles
 SCF Done:  E(UM062X) =  -232.952081346     A.U. after    7 cycles
    -- Stationary point found.
 SCF Done:  E(UM062X) =  -232.948733771     A.U. after   12 cycles
 SCF Done:  E(UM062X) =  -232.954403233     A.U. after   12 cycles
 SCF Done:  E(UM062X) =  -232.954645779     A.U. after   11 cycles
 SCF Done:  E(UM062X) =  -232.954657240     A.U. after   10 cycles
 SCF Done:  E(UM062X) =  -232.954657797     A.U. after    9 cycles
 Optimization completed.
    -- Stationary point found.

                         Standard orientation:
 ---------------------------------------------------------------------
 Center     Atomic      Atomic             Coordinates (Angstroms)
 Number     Number       Type             X           Y           Z
 ---------------------------------------------------------------------
      1          8           0       -0.658278   -0.603680   -0.316013
      2          6           0        0.428495    0.042830    0.320116
      3          6           0        1.673544   -0.764370   -0.033144
      4          6           0       -1.913719   -0.113166    0.082707
      5          6           0        0.551617    1.464137   -0.110713
      6          1           0        0.277619    0.005303    1.408441
      7          1           0        2.553679   -0.338504    0.446017
      8          1           0        1.820675   -0.751519   -1.112587
      9          1           0        1.551574   -1.796582    0.292558
     10          1           0       -2.050111   -0.217966    1.164947
     11          1           0       -2.040167    0.940653   -0.182699
     12          1           0       -2.669456   -0.703496   -0.429487
     13          1           0        0.398317    1.706675   -1.153020
     14          1           0        0.984474    2.208279    0.540136
 ---------------------------------------------------------------------

 The electronic state is 2-A.
 Alpha  occ. eigenvalues --  -19.62176 -10.59114 -10.57153 -10.54415 -10.52444
 Alpha  occ. eigenvalues --   -1.16014  -0.88640  -0.78320  -0.76536  -0.66330
 Alpha  occ. eigenvalues --   -0.57858  -0.54383  -0.53342  -0.49520  -0.47818
 Alpha  occ. eigenvalues --   -0.45385  -0.43469  -0.41970  -0.38759  -0.33522
 Alpha  occ. eigenvalues --   -0.27143
 Alpha virt. eigenvalues --    0.02100   0.03269   0.03742   0.04112   0.05571
 Alpha virt. eigenvalues --    0.06798   0.06982   0.07682   0.07958   0.10003
 Alpha virt. eigenvalues --    0.10648   0.11844   0.12537   0.13498   0.14721

  Beta  occ. eigenvalues --  -19.62151 -10.59179 -10.57141 -10.53734 -10.52359
  Beta  occ. eigenvalues --   -1.15893  -0.87655  -0.76579  -0.75433  -0.65267
  Beta  occ. eigenvalues --   -0.57439  -0.53879  -0.52888  -0.49073  -0.46955
  Beta  occ. eigenvalues --   -0.45013  -0.42784  -0.41639  -0.38390  -0.33247
  Beta virt. eigenvalues --   -0.03073   0.01434   0.03324   0.03471   0.04109
  Beta virt. eigenvalues --    0.05637   0.06683   0.06911   0.07450   0.07820
  Beta virt. eigenvalues --    0.09999   0.10469   0.11579   0.12284   0.13203

 Mulliken charges and spin densities:
               1          2
     1  O   -0.134247   0.000366
     2  C   -0.176389  -0.001647
     3  C   -0.423698   0.014617
     4  C   -0.259665   0.030838
     5  C   -0.374968   1.067536
     6  H    0.165436   0.003254
     7  H    0.142772  -0.006874
     8  H    0.163103  -0.004262
     9  H    0.147657   0.011634
    10  H    0.113845  -0.002571
    11  H    0.125331  -0.013834
    12  H    0.132444  -0.000326
    13  H    0.199356  -0.055948
    14  H    0.179021  -0.042782
 Sum of Mulliken charges =  -0.00000   1.00000

 Dipole moment (field-independent basis, Debye):
    X=              0.0671    Y=              0.8126    Z=              0.8377  Tot=              1.1690
 Quadrupole moment (field-independent basis, Debye-Ang):
   XX=            -30.7141   YY=            -33.8594   ZZ=            -32.6545
   XY=             -0.0118   XZ=              0.1212   YZ=             -0.7261

 Normal termination of Gaussian 16 at Fri Mar 29 17:56:57 2019.
