 Gaussian 16, Revision A.03,
 Gaussian 16:  EM64L-G16RevA.03 25-Dec-2016

 ----------------------------------------------------------------------
 #p m062x/6-311+g(2df,2p) opt=(calcfc,verytight,gdiis,maxcycles=900) fr
 eq iop(7/33=1,2/16=3)
 ----------------------------------------------------------------------

 ------------------------------
 Gaussian input prepared by ASE
 ------------------------------
 Symbolic Z-matrix:
 Charge =  0 Multiplicity = 2

 SCF Done:  E(UM062X) =  -232.946496514     A.U. after   14 cycles
 SCF Done:  E(UM062X) =  -232.951431772     A.U. after   11 cycles
 SCF Done:  E(UM062X) =  -232.952205751     A.U. after   11 cycles
 SCF Done:  E(UM062X) =  -232.952384492     A.U. after   11 cycles
 SCF Done:  E(UM062X) =  -232.952552580     A.U. after   12 cycles
 SCF Done:  E(UM062X) =  -232.952650250     A.U. after   12 cycles
 SCF Done:  E(UM062X) =  -232.952665956     A.U. after   10 cycles
 SCF Done:  E(UM062X) =  -232.952672427     A.U. after   10 cycles
 SCF Done:  E(UM062X) =  -232.952657252     A.U. after   10 cycles
 SCF Done:  E(UM062X) =  -232.952663661     A.U. after    9 cycles
 SCF Done:  E(UM062X) =  -232.952674161     A.U. after    8 cycles
 SCF Done:  E(UM062X) =  -232.952674186     A.U. after    8 cycles
 SCF Done:  E(UM062X) =  -232.952674193     A.U. after    7 cycles
 SCF Done:  E(UM062X) =  -232.952674193     A.U. after    5 cycles
 SCF Done:  E(UM062X) =  -232.952674193     A.U. after    3 cycles
 SCF Done:  E(UM062X) =  -232.952674193     A.U. after    3 cycles
 SCF Done:  E(UM062X) =  -232.952674193     A.U. after    2 cycles
 SCF Done:  E(UM062X) =  -232.952674193     A.U. after    2 cycles
 SCF Done:  E(UM062X) =  -232.952674193     A.U. after    2 cycles
 Optimization completed.
    -- Stationary point found.
 Normal termination of Gaussian 16 at Tue Apr  9 02:02:49 2019.

 ----------------------------------------------------------------------
 #P Geom=AllCheck Guess=TCheck SCRF=Check Test GenChk UM062X/6-311+G(2d
 f,2p) Freq
 ----------------------------------------------------------------------

 Structure from the checkpoint file:  "/scratch/underkoffler.c/gaussian_scratch/Gau-20567.chk"
 ------------------------------
 Gaussian input prepared by ASE
 ------------------------------
 Charge =  0 Multiplicity = 2

                         Standard orientation:
 ---------------------------------------------------------------------
 Center     Atomic      Atomic             Coordinates (Angstroms)
 Number     Number       Type             X           Y           Z
 ---------------------------------------------------------------------
      1          8           0       -0.676387   -0.615339   -0.322242
      2          6           0        0.463530   -0.058117    0.303674
      3          6           0        0.716417    1.386528   -0.127797
      4          6           0       -1.895612   -0.050497    0.083954
      5          6           0        1.614903   -0.935349   -0.017429
      6          1           0        0.288983   -0.062226    1.395524
      7          1           0        0.810445    1.432068   -1.212619
      8          1           0       -0.089818    2.046927    0.187956
      9          1           0        1.641407    1.750076    0.318688
     10          1           0       -2.024371    0.967810   -0.292958
     11          1           0       -2.689377   -0.673652   -0.320957
     12          1           0       -1.979266   -0.033881    1.176620
     13          1           0        2.621432   -0.602280    0.181892
     14          1           0        1.436233   -1.957520   -0.310615
 ---------------------------------------------------------------------

 SCF Done:  E(UM062X) =  -232.952674193     A.U. after    1 cycles

 The electronic state is 2-A.
 Alpha  occ. eigenvalues --  -19.62283 -10.59277 -10.57449 -10.53978 -10.52708
 Alpha  occ. eigenvalues --   -1.16131  -0.88763  -0.79082  -0.76015  -0.66369
 Alpha  occ. eigenvalues --   -0.57471  -0.54765  -0.54064  -0.49880  -0.46605
 Alpha  occ. eigenvalues --   -0.45913  -0.44315  -0.42399  -0.38598  -0.33562
 Alpha  occ. eigenvalues --   -0.26398
 Alpha virt. eigenvalues --    0.01820   0.03121   0.03671   0.04319   0.05542
 Alpha virt. eigenvalues --    0.06275   0.07084   0.07733   0.09369   0.09528
 Alpha virt. eigenvalues --    0.10880   0.11692   0.12933   0.14049   0.15486

  Beta  occ. eigenvalues --  -19.62272 -10.59345 -10.57448 -10.53293 -10.52657
  Beta  occ. eigenvalues --   -1.16068  -0.87722  -0.78690  -0.73875  -0.65136
  Beta  occ. eigenvalues --   -0.56975  -0.54189  -0.53783  -0.49330  -0.46346
  Beta  occ. eigenvalues --   -0.45482  -0.43691  -0.41904  -0.38257  -0.33171
  Beta virt. eigenvalues --   -0.03224   0.01550   0.02829   0.03539   0.04116
  Beta virt. eigenvalues --    0.05583   0.06271   0.07015   0.07598   0.09107
  Beta virt. eigenvalues --    0.09465   0.10764   0.11096   0.12571   0.12931

 Mulliken charges and spin densities:
               1          2
     1  O   -0.130299   0.007018
     2  C   -0.161168  -0.062638
     3  C   -0.403857   0.052021
     4  C   -0.270836   0.007016
     5  C   -0.384041   1.050526
     6  H    0.155459   0.033835
     7  H    0.172769  -0.006352
     8  H    0.136905   0.002905
     9  H    0.142511  -0.002438
    10  H    0.125963  -0.000535
    11  H    0.137094  -0.000492
    12  H    0.114539  -0.001739
    13  H    0.175823  -0.041481
    14  H    0.189137  -0.037645
 Sum of Mulliken charges =  -0.00000   1.00000

 Dipole moment (field-independent basis, Debye):
    X=             -0.1405    Y=              1.0701    Z=              0.9812  Tot=              1.4586
 Quadrupole moment (field-independent basis, Debye-Ang):
   XX=            -29.8986   YY=            -33.4558   ZZ=            -34.1221
   XY=             -0.3304   XZ=             -0.0241   YZ=             -0.2887

  Exact polarizability:  61.337  -1.249  54.208  -0.478   0.166  48.338
 Approx polarizability:  63.093  -0.699  59.875  -0.128   1.359  58.966

                      1                      2                      3
                      A                      A                      A
 Frequencies --     82.1190               119.0813               199.0530
 Red. masses --      1.8307                 1.0375                 1.1057
 Frc consts  --      0.0073                 0.0087                 0.0258
 IR Inten    --      2.7786                 0.5683                 1.2091

                      4                      5                      6
                      A                      A                      A
 Frequencies --    259.5482               306.4669               374.4771
 Red. masses --      1.2878                 2.1930                 1.9661
 Frc consts  --      0.0511                 0.1214                 0.1624
 IR Inten    --      5.2980                 4.1592                 1.1074

                      7                      8                      9
                      A                      A                      A
 Frequencies --    409.4341               467.1103               548.4727
 Red. masses --      1.5180                 2.5979                 2.9298
 Frc consts  --      0.1499                 0.3340                 0.5193
 IR Inten    --     20.1235                15.0194                10.4354

                     10                     11                     12
                      A                      A                      A
 Frequencies --    836.0227               910.8011               962.9042
 Red. masses --      2.3431                 1.6658                 1.6538
 Frc consts  --      0.9649                 0.8142                 0.9034
 IR Inten    --      9.5248                 5.9328                 6.0446

                     13                     14                     15
                      A                      A                      A
 Frequencies --   1059.8853              1136.2904              1152.5547
 Red. masses --      1.6312                 2.1518                 2.2459
 Frc consts  --      1.0796                 1.6370                 1.7578
 IR Inten    --      3.9696                19.2598                18.9436

                     16                     17                     18
                      A                      A                      A
 Frequencies --   1185.6694              1198.9163              1253.3735
 Red. masses --      1.2963                 1.9226                 2.4419
 Frc consts  --      1.0737                 1.6283                 2.2602
 IR Inten    --      4.7605                54.7558                96.8199

                     19                     20                     21
                      A                      A                      A
 Frequencies --   1341.5344              1370.7044              1396.3546
 Red. masses --      1.5463                 1.2849                 1.2787
 Frc consts  --      1.6396                 1.4223                 1.4690
 IR Inten    --      7.4410                27.7564                14.5854

                     22                     23                     24
                      A                      A                      A
 Frequencies --   1452.8622              1482.2191              1492.2901
 Red. masses --      1.2287                 1.1416                 1.0744
 Frc consts  --      1.5281                 1.4777                 1.4096
 IR Inten    --     10.0895                 1.4788                 4.7603

                     25                     26                     27
                      A                      A                      A
 Frequencies --   1496.4608              1511.3850              1522.2049
 Red. masses --      1.0533                 1.0723                 1.0470
 Frc consts  --      1.3898                 1.4432                 1.4294
 IR Inten    --      5.9631                 6.3616                 5.0712

                     28                     29                     30
                      A                      A                      A
 Frequencies --   2912.0049              3018.3997              3067.3572
 Red. masses --      1.0776                 1.0396                 1.0433
 Frc consts  --      5.3838                 5.5805                 5.7834
 IR Inten    --     41.1632                47.0785                 4.4578

                     31                     32                     33
                      A                      A                      A
 Frequencies --   3076.7625              3144.4633              3146.5370
 Red. masses --      1.0899                 1.1016                 1.1002
 Frc consts  --      6.0791                 6.4175                 6.4178
 IR Inten    --     48.3676                25.8708                11.4451

                     34                     35                     36
                      A                      A                      A
 Frequencies --   3148.8925              3186.3778              3299.1098
 Red. masses --      1.1011                 1.0509                 1.1205
 Frc consts  --      6.4330                 6.2864                 7.1854
 IR Inten    --     18.3433                 5.1428                 2.4340

 - Thermochemistry -
 -------------------
 Temperature   298.150 Kelvin.  Pressure   1.00000 Atm.
 Atom     1 has atomic number  8 and mass  15.99491

 Molecular mass:    73.06534 amu.
 Principal axes and moments of inertia in atomic units:
                           1         2         3
     Eigenvalues --   224.67329 452.26703 617.50358
           X            0.99992  -0.01005  -0.00819
           Y            0.00997   0.99991  -0.00943
           Z            0.00828   0.00935   0.99992
 This molecule is an asymmetric top.
 Rotational symmetry number  1.
 Rotational temperatures (Kelvin)      0.38551     0.19151     0.14026
 Rotational constants (GHZ):           8.03274     3.99043     2.92264
 Zero-point vibrational energy     320169.1 (Joules/Mol)
                                   76.52226 (Kcal/Mol)
 Warning -- explicit consideration of   9 degrees of freedom as
           vibrations may cause significant error
 Vibrational temperatures:    118.15   171.33   286.39   373.43   440.94
          (Kelvin)            538.79   589.08   672.07   789.13  1202.85
                             1310.44  1385.40  1524.94  1634.87  1658.27
                             1705.91  1724.97  1803.32  1930.17  1972.14
                             2009.04  2090.34  2132.58  2147.07  2153.07
                             2174.55  2190.11  4189.73  4342.80  4413.24
                             4426.78  4524.18  4527.16  4530.55  4584.49
                             4746.68

 Zero-point correction=                           0.121946 (Hartree/Particle)
 Thermal correction to Energy=                    0.129108
 Thermal correction to Enthalpy=                  0.130052
 Thermal correction to Gibbs Free Energy=         0.091052
 Sum of electronic and zero-point Energies=           -232.830728
 Sum of electronic and thermal Energies=              -232.823566
 Sum of electronic and thermal Enthalpies=            -232.822622
 Sum of electronic and thermal Free Energies=         -232.861622

                     E (Thermal)             CV                S
                      KCal/Mol        Cal/Mol-Kelvin    Cal/Mol-Kelvin
 Total                   81.016             24.257             82.081
 Electronic               0.000              0.000              1.377
 Translational            0.889              2.981             38.783
 Rotational               0.889              2.981             25.643
 Vibrational             79.239             18.296             16.279
 Vibration     1          0.600              1.961              3.840
 Vibration     2          0.609              1.933              3.115
 Vibration     3          0.637              1.841              2.142
 Vibration     4          0.668              1.747              1.665
 Vibration     5          0.697              1.661              1.381
 Vibration     6          0.746              1.524              1.061
 Vibration     7          0.774              1.450              0.929
 Vibration     8          0.824              1.323              0.746
 Vibration     9          0.904              1.143              0.547

                           ! Non-Optimized Parameters !
 Normal termination of Gaussian 16 at Tue Apr  9 02:08:32 2019.
