 Gaussian 16, Revision A.03,
 Gaussian 16:  EM64L-G16RevA.03 25-Dec-2016

 ----------------------------------------------
 #p m062x/6-311+g(2df,2p) Opt=(CalcFC,ModRedun)
 ----------------------------------------------

 ----------------------------------------
 Gaussian Input Prepared from Scan Object
 ----------------------------------------
 Symbolic Z-matrix:
 Charge =  0 Multiplicity = 2

 SCF Done:  E(UM062X) =  -232.954657827     A.U. after   13 cycles

  Exact polarizability:   0.000   0.000   0.000   0.000   0.000   0.000
 Approx polarizability:  61.517   0.173  60.613   0.403   0.475  59.436

 Optimization completed.
    -- Stationary point found.
 SCF Done:  E(UM062X) =  -232.944231292     A.U. after   12 cycles
 SCF Done:  E(UM062X) =  -232.952697898     A.U. after   12 cycles
 SCF Done:  E(UM062X) =  -232.953150227     A.U. after   11 cycles
 SCF Done:  E(UM062X) =  -232.953151446     A.U. after    9 cycles
 SCF Done:  E(UM062X) =  -232.953152096     A.U. after    9 cycles
 SCF Done:  E(UM062X) =  -232.953152105     A.U. after    7 cycles
 Optimization completed.
 SCF Done:  E(UM062X) =  -232.940307047     A.U. after   12 cycles
 SCF Done:  E(UM062X) =  -232.950480928     A.U. after   11 cycles
 SCF Done:  E(UM062X) =  -232.951443755     A.U. after   11 cycles
 SCF Done:  E(UM062X) =  -232.941208199     A.U. after   12 cycles
 SCF Done:  E(UM062X) =  -232.952418401     A.U. after   11 cycles
 SCF Done:  E(UM062X) =  -232.953126470     A.U. after   10 cycles
 SCF Done:  E(UM062X) =  -232.953135418     A.U. after    9 cycles
 SCF Done:  E(UM062X) =  -232.953135625     A.U. after    7 cycles
    -- Stationary point found.
 SCF Done:  E(UM062X) =  -232.945447523     A.U. after   11 cycles
 SCF Done:  E(UM062X) =  -232.954366216     A.U. after   11 cycles
 SCF Done:  E(UM062X) =  -232.954655035     A.U. after   10 cycles
 SCF Done:  E(UM062X) =  -232.954657775     A.U. after    9 cycles
 SCF Done:  E(UM062X) =  -232.954657827     A.U. after    7 cycles
 Optimization completed.
    -- Stationary point found.

                         Standard orientation:
 ---------------------------------------------------------------------
 Center     Atomic      Atomic             Coordinates (Angstroms)
 Number     Number       Type             X           Y           Z
 ---------------------------------------------------------------------
      1          8           0       -0.658208   -0.603732   -0.315972
      2          6           0        0.428574    0.042837    0.320134
      3          6           0        1.673617   -0.764242   -0.033142
      4          6           0       -1.913698   -0.113269    0.082678
      5          6           0        0.551593    1.464119   -0.110766
      6          1           0        0.277529    0.005172    1.408444
      7          1           0        2.553704   -0.338410    0.446136
      8          1           0        1.820876   -0.751253   -1.112573
      9          1           0        1.551644   -1.796495    0.292418
     10          1           0       -2.050024   -0.217831    1.164929
     11          1           0       -2.040284    0.940477   -0.182946
     12          1           0       -2.669389   -0.703810   -0.429339
     13          1           0        0.983196    2.208781    0.540294
     14          1           0        0.397892    1.706556   -1.153008
 ---------------------------------------------------------------------

 The electronic state is 2-A.
 Alpha  occ. eigenvalues --  -19.62176 -10.59114 -10.57153 -10.54414 -10.52443
 Alpha  occ. eigenvalues --   -1.16013  -0.88640  -0.78320  -0.76536  -0.66330
 Alpha  occ. eigenvalues --   -0.57858  -0.54384  -0.53342  -0.49522  -0.47818
 Alpha  occ. eigenvalues --   -0.45384  -0.43469  -0.41970  -0.38757  -0.33523
 Alpha  occ. eigenvalues --   -0.27142
 Alpha virt. eigenvalues --    0.02100   0.03269   0.03742   0.04112   0.05571
 Alpha virt. eigenvalues --    0.06798   0.06982   0.07682   0.07958   0.10004
 Alpha virt. eigenvalues --    0.10649   0.11844   0.12537   0.13499   0.14720

  Beta  occ. eigenvalues --  -19.62150 -10.59179 -10.57141 -10.53733 -10.52359
  Beta  occ. eigenvalues --   -1.15892  -0.87656  -0.76579  -0.75433  -0.65267
  Beta  occ. eigenvalues --   -0.57438  -0.53879  -0.52888  -0.49075  -0.46956
  Beta  occ. eigenvalues --   -0.45013  -0.42785  -0.41640  -0.38388  -0.33247
  Beta virt. eigenvalues --   -0.03072   0.01434   0.03324   0.03472   0.04109
  Beta virt. eigenvalues --    0.05637   0.06683   0.06911   0.07449   0.07820
  Beta virt. eigenvalues --    0.09999   0.10469   0.11579   0.12284   0.13203

 Mulliken charges and spin densities:
               1          2
     1  O   -0.134266   0.000387
     2  C   -0.176317  -0.001691
     3  C   -0.423711   0.014612
     4  C   -0.259669   0.030834
     5  C   -0.375052   1.067605
     6  H    0.165439   0.003253
     7  H    0.142783  -0.006880
     8  H    0.163098  -0.004262
     9  H    0.147652   0.011637
    10  H    0.113848  -0.002573
    11  H    0.125319  -0.013828
    12  H    0.132449  -0.000327
    13  H    0.179049  -0.042797
    14  H    0.199379  -0.055971
 Sum of Mulliken charges =  -0.00000   1.00000

 Dipole moment (field-independent basis, Debye):
    X=              0.0662    Y=              0.8130    Z=              0.8379  Tot=              1.1694
 Quadrupole moment (field-independent basis, Debye-Ang):
   XX=            -30.7159   YY=            -33.8576   ZZ=            -32.6543
   XY=             -0.0136   XZ=              0.1211   YZ=             -0.7253

 Normal termination of Gaussian 16 at Fri Mar 29 17:16:49 2019.
