 Gaussian 16, Revision A.03,
 Gaussian 16:  EM64L-G16RevA.03 25-Dec-2016

 ----------------------------------------------
 #p m062x/6-311+g(2df,2p) Opt=(CalcFC,ModRedun)
 ----------------------------------------------

 ----------------------------------------
 Gaussian Input Prepared from Scan Object
 ----------------------------------------
 Symbolic Z-matrix:
 Charge =  0 Multiplicity = 2

 SCF Done:  E(UM062X) =  -193.656546129     A.U. after   13 cycles

  Exact polarizability:   0.000   0.000   0.000   0.000   0.000   0.000
 Approx polarizability:  50.374   0.016  46.851   0.457  -0.600  43.990

 Optimization completed.
    -- Stationary point found.
 SCF Done:  E(UM062X) =  -193.649117499     A.U. after   12 cycles
 SCF Done:  E(UM062X) =  -193.655189859     A.U. after   12 cycles
 SCF Done:  E(UM062X) =  -193.655753150     A.U. after   11 cycles
 SCF Done:  E(UM062X) =  -193.655778099     A.U. after   10 cycles
 SCF Done:  E(UM062X) =  -193.655799674     A.U. after   11 cycles
 SCF Done:  E(UM062X) =  -193.655801681     A.U. after   10 cycles
 SCF Done:  E(UM062X) =  -193.655801748     A.U. after    9 cycles
 Optimization completed.
 SCF Done:  E(UM062X) =  -193.648007837     A.U. after   12 cycles
 SCF Done:  E(UM062X) =  -193.654700125     A.U. after   12 cycles
 SCF Done:  E(UM062X) =  -193.655528293     A.U. after   12 cycles
 SCF Done:  E(UM062X) =  -193.656257913     A.U. after   12 cycles
 SCF Done:  E(UM062X) =  -193.656269320     A.U. after   10 cycles
 SCF Done:  E(UM062X) =  -193.656270723     A.U. after    9 cycles
    -- Stationary point found.
 SCF Done:  E(UM062X) =  -193.646620081     A.U. after   12 cycles
 SCF Done:  E(UM062X) =  -193.653412418     A.U. after   12 cycles
 SCF Done:  E(UM062X) =  -193.654624216     A.U. after   12 cycles
 SCF Done:  E(UM062X) =  -193.654674039     A.U. after   10 cycles
 SCF Done:  E(UM062X) =  -193.654677974     A.U. after    9 cycles
 SCF Done:  E(UM062X) =  -193.654678118     A.U. after    8 cycles
 Optimization completed.
    -- Stationary point found.

                         Standard orientation:
 ---------------------------------------------------------------------
 Center     Atomic      Atomic             Coordinates (Angstroms)
 Number     Number       Type             X           Y           Z
 ---------------------------------------------------------------------
      1          8           0       -0.494706   -0.470786   -0.038829
      2          6           0        1.874686   -0.095070   -0.005808
      3          6           0       -1.799354    0.061932    0.010465
      4          6           0        0.494578    0.449524    0.093927
      5          1           0        2.501957    0.240794    0.822011
      6          1           0        2.371887    0.191081   -0.936393
      7          1           0        1.831359   -1.182512    0.035090
      8          1           0       -2.491361   -0.764090   -0.125514
      9          1           0       -1.982452    0.540774    0.974844
     10          1           0       -1.946973    0.795071   -0.787280
     11          1           0        0.253774    1.446849   -0.263623
 ---------------------------------------------------------------------

 The electronic state is 2-A.
 Alpha  occ. eigenvalues --  -19.64978 -10.58298 -10.57664 -10.52525  -1.18968
 Alpha  occ. eigenvalues --   -0.86250  -0.78053  -0.68354  -0.57918  -0.55311
 Alpha  occ. eigenvalues --   -0.54012  -0.48307  -0.45006  -0.44210  -0.41194
 Alpha  occ. eigenvalues --   -0.39570  -0.21867
 Alpha virt. eigenvalues --    0.02092   0.03059   0.04392   0.04966   0.05616
 Alpha virt. eigenvalues --    0.06793   0.07819   0.09395   0.10422   0.11645
 Alpha virt. eigenvalues --    0.14034   0.15788   0.17783   0.19720   0.20720

  Beta  occ. eigenvalues --  -19.64602 -10.58304 -10.56926 -10.52565  -1.17699
  Beta  occ. eigenvalues --   -0.84966  -0.77791  -0.66401  -0.56973  -0.53590
  Beta  occ. eigenvalues --   -0.52936  -0.46901  -0.44718  -0.43688  -0.40096
  Beta  occ. eigenvalues --   -0.37330
  Beta virt. eigenvalues --   -0.00207   0.02040   0.03123   0.04184   0.05138
  Beta virt. eigenvalues --    0.05524   0.06822   0.07818   0.09264   0.10071
  Beta virt. eigenvalues --    0.11813   0.13057   0.14686   0.17802   0.19688

 Mulliken charges and spin densities:
               1          2
     1  O   -0.110790   0.058357
     2  C   -0.446777  -0.036524
     3  C   -0.243075   0.024343
     4  C   -0.105277   0.932377
     5  H    0.131870   0.020008
     6  H    0.122809   0.030366
     7  H    0.134064   0.002194
     8  H    0.127897  -0.000317
     9  H    0.128000   0.001809
    10  H    0.116417   0.003614
    11  H    0.144860  -0.036227
 Sum of Mulliken charges =  -0.00000   1.00000

 Dipole moment (field-independent basis, Debye):
    X=             -0.6031    Y=              0.7905    Z=             -0.3337  Tot=              1.0488
 Quadrupole moment (field-independent basis, Debye-Ang):
   XX=            -22.3548   YY=            -26.6024   ZZ=            -27.0402
   XY=             -0.3202   XZ=             -0.0728   YZ=             -0.6474

 Normal termination of Gaussian 16 at Fri Mar 29 11:20:33 2019.
