 Gaussian 16, Revision A.03,
 Gaussian 16:  EM64L-G16RevA.03 25-Dec-2016

 ----------------------------------------------
 #p m062x/6-311+g(2df,2p) Opt=(CalcFC,ModRedun)
 ----------------------------------------------

 ----------------------------------------
 Gaussian Input Prepared from Scan Object
 ----------------------------------------
 Symbolic Z-matrix:
 Charge =  0 Multiplicity = 2

 SCF Done:  E(UM062X) =  -193.656546129     A.U. after   13 cycles

  Exact polarizability:   0.000   0.000   0.000   0.000   0.000   0.000
 Approx polarizability:  50.374   0.016  46.851   0.457  -0.600  43.990

 Optimization completed.
    -- Stationary point found.
 SCF Done:  E(UM062X) =  -193.646233470     A.U. after   12 cycles
 SCF Done:  E(UM062X) =  -193.654831796     A.U. after   12 cycles
 SCF Done:  E(UM062X) =  -193.655292466     A.U. after   11 cycles
 SCF Done:  E(UM062X) =  -193.655293870     A.U. after    9 cycles
 Optimization completed.
 SCF Done:  E(UM062X) =  -193.643093069     A.U. after   12 cycles
 SCF Done:  E(UM062X) =  -193.653174026     A.U. after   12 cycles
 SCF Done:  E(UM062X) =  -193.654035929     A.U. after   11 cycles
 SCF Done:  E(UM062X) =  -193.654044274     A.U. after   10 cycles
 SCF Done:  E(UM062X) =  -193.644283502     A.U. after   13 cycles
 SCF Done:  E(UM062X) =  -193.654039691     A.U. after   11 cycles
 SCF Done:  E(UM062X) =  -193.654043841     A.U. after    9 cycles
 SCF Done:  E(UM062X) =  -193.643835129     A.U. after   12 cycles
 SCF Done:  E(UM062X) =  -193.654610150     A.U. after   12 cycles
 SCF Done:  E(UM062X) =  -193.655302606     A.U. after   11 cycles
 SCF Done:  E(UM062X) =  -193.655308135     A.U. after   10 cycles
    -- Stationary point found.
 SCF Done:  E(UM062X) =  -193.647171602     A.U. after   12 cycles
 SCF Done:  E(UM062X) =  -193.656212287     A.U. after   12 cycles
 SCF Done:  E(UM062X) =  -193.656543308     A.U. after   11 cycles
 SCF Done:  E(UM062X) =  -193.656546083     A.U. after    9 cycles
 Optimization completed.
    -- Stationary point found.

                         Standard orientation:
 ---------------------------------------------------------------------
 Center     Atomic      Atomic             Coordinates (Angstroms)
 Number     Number       Type             X           Y           Z
 ---------------------------------------------------------------------
      1          8           0       -0.491678   -0.469593    0.036206
      2          6           0        1.868819   -0.098337    0.003348
      3          6           0       -1.797889    0.060318   -0.010010
      4          6           0        0.495750    0.450408   -0.087059
      5          1           0        2.084618   -0.505217    0.998608
      6          1           0        2.600632    0.678598   -0.208859
      7          1           0        2.004804   -0.908832   -0.714060
      8          1           0       -2.488212   -0.767797    0.121229
      9          1           0       -1.946759    0.788087    0.792182
     10          1           0       -1.981969    0.543734   -0.971862
     11          1           0        0.260230    1.453842    0.255445
 ---------------------------------------------------------------------

 The electronic state is 2-A.
 Alpha  occ. eigenvalues --  -19.64973 -10.58344 -10.57739 -10.52559  -1.19025
 Alpha  occ. eigenvalues --   -0.86377  -0.78125  -0.68319  -0.57983  -0.55383
 Alpha  occ. eigenvalues --   -0.54130  -0.48226  -0.45280  -0.44362  -0.41033
 Alpha  occ. eigenvalues --   -0.39509  -0.21934
 Alpha virt. eigenvalues --    0.02127   0.03119   0.04369   0.05103   0.05645
 Alpha virt. eigenvalues --    0.07027   0.07620   0.09351   0.10248   0.12168
 Alpha virt. eigenvalues --    0.14876   0.15717   0.18482   0.18880   0.19823

  Beta  occ. eigenvalues --  -19.64618 -10.58350 -10.57012 -10.52604  -1.17808
  Beta  occ. eigenvalues --   -0.85085  -0.77874  -0.66384  -0.57040  -0.53666
  Beta  occ. eigenvalues --   -0.53070  -0.46794  -0.45073  -0.43816  -0.40062
  Beta  occ. eigenvalues --   -0.37308
  Beta virt. eigenvalues --   -0.00436   0.01984   0.03040   0.04092   0.05169
  Beta virt. eigenvalues --    0.05505   0.06959   0.07538   0.09140   0.09710
  Beta virt. eigenvalues --    0.12369   0.13679   0.14783   0.18219   0.18838

 Mulliken charges and spin densities:
               1          2
     1  O   -0.112555   0.058558
     2  C   -0.453205  -0.045333
     3  C   -0.247331   0.022853
     4  C   -0.111166   0.921999
     5  H    0.130531   0.049947
     6  H    0.128158   0.004764
     7  H    0.141196   0.020660
     8  H    0.128211  -0.000305
     9  H    0.117683   0.003207
    10  H    0.129293   0.001281
    11  H    0.149185  -0.037630
 Sum of Mulliken charges =  -0.00000   1.00000

 Dipole moment (field-independent basis, Debye):
    X=             -0.6270    Y=              0.8357    Z=              0.3184  Tot=              1.0922
 Quadrupole moment (field-independent basis, Debye-Ang):
   XX=            -22.3006   YY=            -26.6210   ZZ=            -27.0922
   XY=             -0.2228   XZ=              0.0626   YZ=              0.6532

 Normal termination of Gaussian 16 at Fri Mar 29 10:55:26 2019.
