 Gaussian 16, Revision A.03,
 Gaussian 16:  EM64L-G16RevA.03 25-Dec-2016

 ----------------------------------------------
 #p m062x/6-311+g(2df,2p) Opt=(CalcFC,ModRedun)
 ----------------------------------------------

 ----------------------------------------
 Gaussian Input Prepared from Scan Object
 ----------------------------------------
 Symbolic Z-matrix:
 Charge =  0 Multiplicity = 2

 SCF Done:  E(UM062X) =  -193.656546129     A.U. after   13 cycles

  Exact polarizability:   0.000   0.000   0.000   0.000   0.000   0.000
 Approx polarizability:  50.374   0.016  46.851   0.457  -0.600  43.990

 Optimization completed.
    -- Stationary point found.
 SCF Done:  E(UM062X) =  -193.655396470     A.U. after   11 cycles
 SCF Done:  E(UM062X) =  -193.656376910     A.U. after   12 cycles
 SCF Done:  E(UM062X) =  -193.656378610     A.U. after    8 cycles
 Optimization completed.
 SCF Done:  E(UM062X) =  -193.654912454     A.U. after   11 cycles
 SCF Done:  E(UM062X) =  -193.655920236     A.U. after   12 cycles
 SCF Done:  E(UM062X) =  -193.655923011     A.U. after    8 cycles
 SCF Done:  E(UM062X) =  -193.654231332     A.U. after   12 cycles
 SCF Done:  E(UM062X) =  -193.655295322     A.U. after   11 cycles
 SCF Done:  E(UM062X) =  -193.655298832     A.U. after    8 cycles
 SCF Done:  E(UM062X) =  -193.655278446     A.U. after    9 cycles
 SCF Done:  E(UM062X) =  -193.654842410     A.U. after   11 cycles
 SCF Done:  E(UM062X) =  -193.655908544     A.U. after   10 cycles
 SCF Done:  E(UM062X) =  -193.655911366     A.U. after    8 cycles
 SCF Done:  E(UM062X) =  -193.655353042     A.U. after   11 cycles
 SCF Done:  E(UM062X) =  -193.656371874     A.U. after   10 cycles
 SCF Done:  E(UM062X) =  -193.656375691     A.U. after    8 cycles
    -- Stationary point found.
 SCF Done:  E(UM062X) =  -193.655558398     A.U. after   11 cycles
 SCF Done:  E(UM062X) =  -193.656543640     A.U. after   11 cycles
 SCF Done:  E(UM062X) =  -193.656546120     A.U. after    8 cycles
 Optimization completed.
    -- Stationary point found.

                         Standard orientation:
 ---------------------------------------------------------------------
 Center     Atomic      Atomic             Coordinates (Angstroms)
 Number     Number       Type             X           Y           Z
 ---------------------------------------------------------------------
      1          8           0       -0.491636   -0.469287    0.036564
      2          6           0        1.868842   -0.098508    0.003176
      3          6           0       -1.798053    0.060126   -0.010219
      4          6           0        0.495883    0.450581   -0.086964
      5          1           0        2.084458   -0.506037    0.998208
      6          1           0        2.600814    0.678429   -0.208474
      7          1           0        2.004737   -0.908573   -0.714733
      8          1           0       -2.488178   -0.768178    0.121281
      9          1           0       -1.947303    0.788426    0.791477
     10          1           0       -1.982223    0.543079   -0.972282
     11          1           0        0.260749    1.453945    0.256053
 ---------------------------------------------------------------------

 The electronic state is 2-A.
 Alpha  occ. eigenvalues --  -19.64972 -10.58346 -10.57740 -10.52558  -1.19022
 Alpha  occ. eigenvalues --   -0.86378  -0.78125  -0.68317  -0.57984  -0.55380
 Alpha  occ. eigenvalues --   -0.54130  -0.48226  -0.45279  -0.44364  -0.41034
 Alpha  occ. eigenvalues --   -0.39503  -0.21937
 Alpha virt. eigenvalues --    0.02127   0.03119   0.04369   0.05103   0.05645
 Alpha virt. eigenvalues --    0.07027   0.07620   0.09350   0.10248   0.12166
 Alpha virt. eigenvalues --    0.14874   0.15716   0.18482   0.18879   0.19824

  Beta  occ. eigenvalues --  -19.64617 -10.58351 -10.57014 -10.52604  -1.17805
  Beta  occ. eigenvalues --   -0.85087  -0.77874  -0.66382  -0.57041  -0.53664
  Beta  occ. eigenvalues --   -0.53068  -0.46794  -0.45072  -0.43818  -0.40060
  Beta  occ. eigenvalues --   -0.37305
  Beta virt. eigenvalues --   -0.00438   0.01985   0.03040   0.04093   0.05168
  Beta virt. eigenvalues --    0.05505   0.06959   0.07538   0.09139   0.09709
  Beta virt. eigenvalues --    0.12368   0.13678   0.14782   0.18219   0.18838

 Mulliken charges and spin densities:
               1          2
     1  O   -0.112531   0.058545
     2  C   -0.453106  -0.045354
     3  C   -0.247318   0.022848
     4  C   -0.111283   0.922005
     5  H    0.130543   0.049939
     6  H    0.128152   0.004759
     7  H    0.141205   0.020670
     8  H    0.128209  -0.000304
     9  H    0.117673   0.003202
    10  H    0.129290   0.001277
    11  H    0.149166  -0.037587
 Sum of Mulliken charges =  -0.00000   1.00000

 Dipole moment (field-independent basis, Debye):
    X=             -0.6271    Y=              0.8350    Z=              0.3179  Tot=              1.0916
 Quadrupole moment (field-independent basis, Debye-Ang):
   XX=            -22.2995   YY=            -26.6207   ZZ=            -27.0924
   XY=             -0.2220   XZ=              0.0637   YZ=              0.6544

 Normal termination of Gaussian 16 at Sat Apr 13 04:02:46 2019.
