 Gaussian 16, Revision A.03,
 Gaussian 16:  EM64L-G16RevA.03 25-Dec-2016

 ----------------------------------------------
 #p m062x/6-311+g(2df,2p) Opt=(CalcFC,ModRedun)
 ----------------------------------------------

 ----------------------------------------
 Gaussian Input Prepared from Scan Object
 ----------------------------------------
 Symbolic Z-matrix:
 Charge =  0 Multiplicity = 2

 SCF Done:  E(UM062X) =  -193.656546129     A.U. after   13 cycles

  Exact polarizability:   0.000   0.000   0.000   0.000   0.000   0.000
 Approx polarizability:  50.374   0.016  46.851   0.457  -0.600  43.990

 Optimization completed.
    -- Stationary point found.
 SCF Done:  E(UM062X) =  -193.656149166     A.U. after   12 cycles
 SCF Done:  E(UM062X) =  -193.656323517     A.U. after   10 cycles
 Optimization completed.
 SCF Done:  E(UM062X) =  -193.655423313     A.U. after   12 cycles
 SCF Done:  E(UM062X) =  -193.655617172     A.U. after   10 cycles
 SCF Done:  E(UM062X) =  -193.655617296     A.U. after    8 cycles
 SCF Done:  E(UM062X) =  -193.654202549     A.U. after   12 cycles
 SCF Done:  E(UM062X) =  -193.654425068     A.U. after   11 cycles
 SCF Done:  E(UM062X) =  -193.654425366     A.U. after    8 cycles
 SCF Done:  E(UM062X) =  -193.652583314     A.U. after   12 cycles
 SCF Done:  E(UM062X) =  -193.655766213     A.U. after   11 cycles
 SCF Done:  E(UM062X) =  -193.655868087     A.U. after   10 cycles
 SCF Done:  E(UM062X) =  -193.655872840     A.U. after    9 cycles
 SCF Done:  E(UM062X) =  -193.655872913     A.U. after    8 cycles
 SCF Done:  E(UM062X) =  -193.656225375     A.U. after   11 cycles
 SCF Done:  E(UM062X) =  -193.656358213     A.U. after   10 cycles
    -- Stationary point found.
 SCF Done:  E(UM062X) =  -193.656391289     A.U. after   12 cycles
 SCF Done:  E(UM062X) =  -193.656545677     A.U. after   10 cycles
 SCF Done:  E(UM062X) =  -193.656545934     A.U. after    9 cycles
 SCF Done:  E(UM062X) =  -193.656546128     A.U. after    8 cycles
 Optimization completed.
    -- Stationary point found.

                         Standard orientation:
 ---------------------------------------------------------------------
 Center     Atomic      Atomic             Coordinates (Angstroms)
 Number     Number       Type             X           Y           Z
 ---------------------------------------------------------------------
      1          8           0       -0.491594   -0.469323    0.036592
      2          6           0        1.868807   -0.098486    0.003151
      3          6           0       -1.798011    0.060127   -0.010250
      4          6           0        0.495836    0.450599   -0.086914
      5          1           0        2.084425   -0.506014    0.998183
      6          1           0        2.600799    0.678423   -0.208525
      7          1           0        2.004664   -0.908567   -0.714750
      8          1           0       -2.488023   -0.768224    0.121296
      9          1           0       -1.947412    0.788494    0.791374
     10          1           0       -1.982148    0.543075   -0.972313
     11          1           0        0.260658    1.453960    0.256072
 ---------------------------------------------------------------------

 The electronic state is 2-A.
 Alpha  occ. eigenvalues --  -19.64973 -10.58346 -10.57739 -10.52558  -1.19024
 Alpha  occ. eigenvalues --   -0.86378  -0.78125  -0.68317  -0.57985  -0.55380
 Alpha  occ. eigenvalues --   -0.54130  -0.48226  -0.45279  -0.44364  -0.41035
 Alpha  occ. eigenvalues --   -0.39503  -0.21936
 Alpha virt. eigenvalues --    0.02127   0.03119   0.04369   0.05103   0.05645
 Alpha virt. eigenvalues --    0.07027   0.07620   0.09350   0.10248   0.12166
 Alpha virt. eigenvalues --    0.14874   0.15716   0.18482   0.18879   0.19824

  Beta  occ. eigenvalues --  -19.64618 -10.58351 -10.57013 -10.52604  -1.17806
  Beta  occ. eigenvalues --   -0.85086  -0.77874  -0.66383  -0.57041  -0.53665
  Beta  occ. eigenvalues --   -0.53068  -0.46794  -0.45072  -0.43818  -0.40062
  Beta  occ. eigenvalues --   -0.37306
  Beta virt. eigenvalues --   -0.00438   0.01985   0.03040   0.04093   0.05168
  Beta virt. eigenvalues --    0.05506   0.06959   0.07539   0.09139   0.09709
  Beta virt. eigenvalues --    0.12368   0.13678   0.14782   0.18219   0.18837

 Mulliken charges and spin densities:
               1          2
     1  O   -0.112526   0.058543
     2  C   -0.453143  -0.045351
     3  C   -0.247318   0.022849
     4  C   -0.111271   0.922012
     5  H    0.130546   0.049937
     6  H    0.128150   0.004759
     7  H    0.141204   0.020670
     8  H    0.128211  -0.000304
     9  H    0.117675   0.003201
    10  H    0.129298   0.001275
    11  H    0.149173  -0.037592
 Sum of Mulliken charges =  -0.00000   1.00000

 Dipole moment (field-independent basis, Debye):
    X=             -0.6272    Y=              0.8351    Z=              0.3178  Tot=              1.0917
 Quadrupole moment (field-independent basis, Debye-Ang):
   XX=            -22.3000   YY=            -26.6204   ZZ=            -27.0925
   XY=             -0.2224   XZ=              0.0635   YZ=              0.6543

 Normal termination of Gaussian 16 at Sat Apr 13 01:43:52 2019.
