 Gaussian 16, Revision A.03,
 Gaussian 16:  EM64L-G16RevA.03 25-Dec-2016

 ----------------------------------------------
 #p m062x/6-311+g(2df,2p) Opt=(CalcFC,ModRedun)
 ----------------------------------------------

 ----------------------------------------
 Gaussian Input Prepared from Scan Object
 ----------------------------------------
 Symbolic Z-matrix:
 Charge =  0 Multiplicity = 2

 SCF Done:  E(UM062X) =  -193.656546129     A.U. after   13 cycles

  Exact polarizability:   0.000   0.000   0.000   0.000   0.000   0.000
 Approx polarizability:  50.374   0.016  46.851   0.457  -0.600  43.990

 Optimization completed.
    -- Stationary point found.
 SCF Done:  E(UM062X) =  -193.652918982     A.U. after   13 cycles
 SCF Done:  E(UM062X) =  -193.654432280     A.U. after   12 cycles
 SCF Done:  E(UM062X) =  -193.654456239     A.U. after   10 cycles
 SCF Done:  E(UM062X) =  -193.654459086     A.U. after    9 cycles
 SCF Done:  E(UM062X) =  -193.654459130     A.U. after    7 cycles
 Optimization completed.
 SCF Done:  E(UM062X) =  -193.646197752     A.U. after   13 cycles
 SCF Done:  E(UM062X) =  -193.649522489     A.U. after   13 cycles
 SCF Done:  E(UM062X) =  -193.649642126     A.U. after   11 cycles
 SCF Done:  E(UM062X) =  -193.649644797     A.U. after    9 cycles
    -- Stationary point found.
 SCF Done:  E(UM062X) =  -193.655094948     A.U. after   13 cycles
 SCF Done:  E(UM062X) =  -193.653968252     A.U. after   12 cycles
 SCF Done:  E(UM062X) =  -193.654971570     A.U. after   12 cycles
 SCF Done:  E(UM062X) =  -193.655988757     A.U. after   10 cycles
 SCF Done:  E(UM062X) =  -193.656360282     A.U. after   14 cycles
 SCF Done:  E(UM062X) =  -193.656355837     A.U. after   12 cycles
 SCF Done:  E(UM062X) =  -193.656396406     A.U. after   12 cycles
 SCF Done:  E(UM062X) =  -193.656498827     A.U. after   12 cycles
 SCF Done:  E(UM062X) =  -193.656545926     A.U. after   10 cycles
 SCF Done:  E(UM062X) =  -193.656546129     A.U. after    8 cycles
 Optimization completed.
    -- Stationary point found.

                         Standard orientation:
 ---------------------------------------------------------------------
 Center     Atomic      Atomic             Coordinates (Angstroms)
 Number     Number       Type             X           Y           Z
 ---------------------------------------------------------------------
      1          8           0       -0.491622   -0.469359    0.036590
      2          6           0        1.868827   -0.098457    0.003153
      3          6           0       -1.798017    0.060164   -0.010248
      4          6           0        0.495835    0.450532   -0.086915
      5          1           0        2.084608   -0.505750    0.998247
      6          1           0        2.600719    0.678481   -0.208767
      7          1           0        2.004678   -0.908678   -0.714588
      8          1           0       -2.488078   -0.768160    0.121210
      9          1           0       -1.947399    0.788471    0.791432
     10          1           0       -1.982096    0.543195   -0.972276
     11          1           0        0.260675    1.453876    0.256076
 ---------------------------------------------------------------------

 The electronic state is 2-A.
 Alpha  occ. eigenvalues --  -19.64973 -10.58346 -10.57739 -10.52558  -1.19023
 Alpha  occ. eigenvalues --   -0.86378  -0.78125  -0.68317  -0.57985  -0.55380
 Alpha  occ. eigenvalues --   -0.54131  -0.48226  -0.45279  -0.44364  -0.41035
 Alpha  occ. eigenvalues --   -0.39503  -0.21936
 Alpha virt. eigenvalues --    0.02127   0.03119   0.04369   0.05103   0.05645
 Alpha virt. eigenvalues --    0.07026   0.07620   0.09350   0.10248   0.12166
 Alpha virt. eigenvalues --    0.14874   0.15717   0.18482   0.18878   0.19824

  Beta  occ. eigenvalues --  -19.64618 -10.58351 -10.57013 -10.52603  -1.17806
  Beta  occ. eigenvalues --   -0.85086  -0.77874  -0.66383  -0.57041  -0.53665
  Beta  occ. eigenvalues --   -0.53068  -0.46794  -0.45072  -0.43818  -0.40062
  Beta  occ. eigenvalues --   -0.37306
  Beta virt. eigenvalues --   -0.00438   0.01985   0.03040   0.04093   0.05168
  Beta virt. eigenvalues --    0.05505   0.06959   0.07539   0.09140   0.09710
  Beta virt. eigenvalues --    0.12368   0.13679   0.14782   0.18219   0.18837

 Mulliken charges and spin densities:
               1          2
     1  O   -0.112538   0.058546
     2  C   -0.453150  -0.045354
     3  C   -0.247313   0.022848
     4  C   -0.111254   0.922011
     5  H    0.130541   0.049944
     6  H    0.128153   0.004762
     7  H    0.141199   0.020663
     8  H    0.128212  -0.000304
     9  H    0.117679   0.003201
    10  H    0.129298   0.001275
    11  H    0.149172  -0.037594
 Sum of Mulliken charges =  -0.00000   1.00000

 Dipole moment (field-independent basis, Debye):
    X=             -0.6272    Y=              0.8352    Z=              0.3178  Tot=              1.0917
 Quadrupole moment (field-independent basis, Debye-Ang):
   XX=            -22.2999   YY=            -26.6205   ZZ=            -27.0924
   XY=             -0.2224   XZ=              0.0635   YZ=              0.6543

 Normal termination of Gaussian 16 at Fri Mar 29 10:38:39 2019.
