 Gaussian 16, Revision A.03,
 Gaussian 16:  EM64L-G16RevA.03 25-Dec-2016

 ----------------------------------------------
 #p m062x/6-311+g(2df,2p) Opt=(CalcFC,ModRedun)
 ----------------------------------------------

 ----------------------------------------
 Gaussian Input Prepared from Scan Object
 ----------------------------------------
 Symbolic Z-matrix:
 Charge =  0 Multiplicity = 2

 SCF Done:  E(UM062X) =  -193.656546129     A.U. after   13 cycles

  Exact polarizability:   0.000   0.000   0.000   0.000   0.000   0.000
 Approx polarizability:  50.374   0.016  46.851   0.457  -0.600  43.990

 Optimization completed.
    -- Stationary point found.
 SCF Done:  E(UM062X) =  -193.655396851     A.U. after   11 cycles
 SCF Done:  E(UM062X) =  -193.656376919     A.U. after   10 cycles
 SCF Done:  E(UM062X) =  -193.656379116     A.U. after    8 cycles
 Optimization completed.
 SCF Done:  E(UM062X) =  -193.654911217     A.U. after   12 cycles
 SCF Done:  E(UM062X) =  -193.655919048     A.U. after   11 cycles
 SCF Done:  E(UM062X) =  -193.655921959     A.U. after    9 cycles
 SCF Done:  E(UM062X) =  -193.654238581     A.U. after   12 cycles
 SCF Done:  E(UM062X) =  -193.655290161     A.U. after   11 cycles
 SCF Done:  E(UM062X) =  -193.655292327     A.U. after    8 cycles
 SCF Done:  E(UM062X) =  -193.655304382     A.U. after    8 cycles
 SCF Done:  E(UM062X) =  -193.654857102     A.U. after   11 cycles
 SCF Done:  E(UM062X) =  -193.655927550     A.U. after   12 cycles
 SCF Done:  E(UM062X) =  -193.655929233     A.U. after    9 cycles
 SCF Done:  E(UM062X) =  -193.655370304     A.U. after   10 cycles
 SCF Done:  E(UM062X) =  -193.656377255     A.U. after   12 cycles
 SCF Done:  E(UM062X) =  -193.656381129     A.U. after    9 cycles
    -- Stationary point found.
 SCF Done:  E(UM062X) =  -193.655566529     A.U. after   11 cycles
 SCF Done:  E(UM062X) =  -193.656544584     A.U. after   11 cycles
 SCF Done:  E(UM062X) =  -193.656546125     A.U. after    8 cycles
 Optimization completed.
    -- Stationary point found.

                         Standard orientation:
 ---------------------------------------------------------------------
 Center     Atomic      Atomic             Coordinates (Angstroms)
 Number     Number       Type             X           Y           Z
 ---------------------------------------------------------------------
      1          8           0       -0.491638   -0.469431    0.036631
      2          6           0        1.868829   -0.098425    0.003124
      3          6           0       -1.797984    0.060198   -0.010300
      4          6           0        0.495799    0.450511   -0.086847
      5          1           0        2.084677   -0.505791    0.998174
      6          1           0        2.600688    0.678550   -0.208778
      7          1           0        2.004665   -0.908585   -0.714689
      8          1           0       -2.488106   -0.768056    0.121332
      9          1           0       -1.947281    0.788621    0.791330
     10          1           0       -1.981949    0.543134   -0.972373
     11          1           0        0.260547    1.453871    0.256090
 ---------------------------------------------------------------------

 The electronic state is 2-A.
 Alpha  occ. eigenvalues --  -19.64973 -10.58345 -10.57739 -10.52559  -1.19023
 Alpha  occ. eigenvalues --   -0.86378  -0.78125  -0.68318  -0.57984  -0.55380
 Alpha  occ. eigenvalues --   -0.54130  -0.48226  -0.45279  -0.44363  -0.41036
 Alpha  occ. eigenvalues --   -0.39503  -0.21936
 Alpha virt. eigenvalues --    0.02127   0.03119   0.04369   0.05103   0.05645
 Alpha virt. eigenvalues --    0.07026   0.07620   0.09351   0.10248   0.12166
 Alpha virt. eigenvalues --    0.14874   0.15717   0.18482   0.18878   0.19824

  Beta  occ. eigenvalues --  -19.64618 -10.58351 -10.57013 -10.52604  -1.17806
  Beta  occ. eigenvalues --   -0.85086  -0.77874  -0.66383  -0.57040  -0.53665
  Beta  occ. eigenvalues --   -0.53067  -0.46794  -0.45072  -0.43817  -0.40063
  Beta  occ. eigenvalues --   -0.37306
  Beta virt. eigenvalues --   -0.00438   0.01985   0.03040   0.04093   0.05168
  Beta virt. eigenvalues --    0.05505   0.06959   0.07539   0.09140   0.09710
  Beta virt. eigenvalues --    0.12368   0.13679   0.14782   0.18219   0.18836

 Mulliken charges and spin densities:
               1          2
     1  O   -0.112550   0.058536
     2  C   -0.453191  -0.045357
     3  C   -0.247300   0.022853
     4  C   -0.111215   0.922030
     5  H    0.130544   0.049942
     6  H    0.128154   0.004762
     7  H    0.141201   0.020666
     8  H    0.128211  -0.000304
     9  H    0.117662   0.003201
    10  H    0.129310   0.001271
    11  H    0.149173  -0.037601
 Sum of Mulliken charges =  -0.00000   1.00000

 Dipole moment (field-independent basis, Debye):
    X=             -0.6270    Y=              0.8353    Z=              0.3176  Tot=              1.0917
 Quadrupole moment (field-independent basis, Debye-Ang):
   XX=            -22.3002   YY=            -26.6206   ZZ=            -27.0923
   XY=             -0.2226   XZ=              0.0634   YZ=              0.6541

 Normal termination of Gaussian 16 at Sun Apr 14 13:42:05 2019.
