 Gaussian 16, Revision A.03,
 Gaussian 16:  EM64L-G16RevA.03 25-Dec-2016

 ----------------------------------------------
 #p m062x/6-311+g(2df,2p) Opt=(CalcFC,ModRedun)
 ----------------------------------------------

 ----------------------------------------
 Gaussian Input Prepared from Scan Object
 ----------------------------------------
 Symbolic Z-matrix:
 Charge =  0 Multiplicity = 2

 SCF Done:  E(UM062X) =  -193.656546129     A.U. after   13 cycles

  Exact polarizability:   0.000   0.000   0.000   0.000   0.000   0.000
 Approx polarizability:  50.374   0.016  46.851   0.457  -0.600  43.990

 Optimization completed.
    -- Stationary point found.
 SCF Done:  E(UM062X) =  -193.655625976     A.U. after   12 cycles
 SCF Done:  E(UM062X) =  -193.656430050     A.U. after   11 cycles
 SCF Done:  E(UM062X) =  -193.656436680     A.U. after    9 cycles
 Optimization completed.
 SCF Done:  E(UM062X) =  -193.655326923     A.U. after   12 cycles
 SCF Done:  E(UM062X) =  -193.656133207     A.U. after   11 cycles
 SCF Done:  E(UM062X) =  -193.656142503     A.U. after    9 cycles
 SCF Done:  E(UM062X) =  -193.654902731     A.U. after   12 cycles
 SCF Done:  E(UM062X) =  -193.655717726     A.U. after   11 cycles
 SCF Done:  E(UM062X) =  -193.655725123     A.U. after    9 cycles
 SCF Done:  E(UM062X) =  -193.655172338     A.U. after   12 cycles
 SCF Done:  E(UM062X) =  -193.656059862     A.U. after   11 cycles
 SCF Done:  E(UM062X) =  -193.656069185     A.U. after    9 cycles
 SCF Done:  E(UM062X) =  -193.655586722     A.U. after   12 cycles
 SCF Done:  E(UM062X) =  -193.656421050     A.U. after   11 cycles
 SCF Done:  E(UM062X) =  -193.656427554     A.U. after    9 cycles
    -- Stationary point found.
 SCF Done:  E(UM062X) =  -193.655732504     A.U. after   12 cycles
 SCF Done:  E(UM062X) =  -193.656540051     A.U. after   11 cycles
 SCF Done:  E(UM062X) =  -193.656546030     A.U. after    9 cycles
 SCF Done:  E(UM062X) =  -193.656546124     A.U. after    7 cycles
 Optimization completed.
    -- Stationary point found.

                         Standard orientation:
 ---------------------------------------------------------------------
 Center     Atomic      Atomic             Coordinates (Angstroms)
 Number     Number       Type             X           Y           Z
 ---------------------------------------------------------------------
      1          8           0       -0.491625   -0.469349    0.036540
      2          6           0        1.868834   -0.098457    0.003177
      3          6           0       -1.798023    0.060158   -0.010210
      4          6           0        0.495850    0.450539   -0.086974
      5          1           0        2.084492   -0.506114    0.998168
      6          1           0        2.600701    0.678608   -0.208330
      7          1           0        2.004799   -0.908494   -0.714759
      8          1           0       -2.488065   -0.768171    0.121334
      9          1           0       -1.947352    0.788487    0.791460
     10          1           0       -1.982199    0.543160   -0.972237
     11          1           0        0.260665    1.453876    0.256080
 ---------------------------------------------------------------------

 The electronic state is 2-A.
 Alpha  occ. eigenvalues --  -19.64972 -10.58346 -10.57740 -10.52558  -1.19023
 Alpha  occ. eigenvalues --   -0.86378  -0.78125  -0.68317  -0.57985  -0.55380
 Alpha  occ. eigenvalues --   -0.54130  -0.48225  -0.45280  -0.44364  -0.41034
 Alpha  occ. eigenvalues --   -0.39503  -0.21937
 Alpha virt. eigenvalues --    0.02127   0.03119   0.04369   0.05103   0.05645
 Alpha virt. eigenvalues --    0.07027   0.07620   0.09350   0.10248   0.12166
 Alpha virt. eigenvalues --    0.14874   0.15717   0.18482   0.18879   0.19823

  Beta  occ. eigenvalues --  -19.64618 -10.58351 -10.57013 -10.52604  -1.17806
  Beta  occ. eigenvalues --   -0.85087  -0.77874  -0.66382  -0.57041  -0.53665
  Beta  occ. eigenvalues --   -0.53068  -0.46793  -0.45073  -0.43818  -0.40061
  Beta  occ. eigenvalues --   -0.37306
  Beta virt. eigenvalues --   -0.00438   0.01985   0.03040   0.04093   0.05169
  Beta virt. eigenvalues --    0.05505   0.06959   0.07539   0.09139   0.09710
  Beta virt. eigenvalues --    0.12368   0.13678   0.14782   0.18219   0.18838

 Mulliken charges and spin densities:
               1          2
     1  O   -0.112540   0.058550
     2  C   -0.453121  -0.045353
     3  C   -0.247321   0.022850
     4  C   -0.111253   0.921983
     5  H    0.130538   0.049947
     6  H    0.128148   0.004758
     7  H    0.141205   0.020675
     8  H    0.128212  -0.000304
     9  H    0.117675   0.003202
    10  H    0.129299   0.001275
    11  H    0.149157  -0.037584
 Sum of Mulliken charges =  -0.00000   1.00000

 Dipole moment (field-independent basis, Debye):
    X=             -0.6272    Y=              0.8352    Z=              0.3180  Tot=              1.0918
 Quadrupole moment (field-independent basis, Debye-Ang):
   XX=            -22.3000   YY=            -26.6204   ZZ=            -27.0926
   XY=             -0.2225   XZ=              0.0637   YZ=              0.6542

 Normal termination of Gaussian 16 at Sat Apr 13 03:30:03 2019.
