 Gaussian 16, Revision A.03,
 Gaussian 16:  EM64L-G16RevA.03 25-Dec-2016

 ----------------------------------------------------------------------
 #p m062x/6-311+g(2df,2p) opt=(calcfc,verytight,gdiis,maxcycles=900) fr
 eq iop(7/33=1,2/16=3)
 ----------------------------------------------------------------------

 ------------------------------
 Gaussian input prepared by ASE
 ------------------------------
 Symbolic Z-matrix:
 Charge =  0 Multiplicity = 2

 SCF Done:  E(UM062X) =  -193.644081493     A.U. after   14 cycles
 SCF Done:  E(UM062X) =  -193.651497094     A.U. after   13 cycles
 SCF Done:  E(UM062X) =  -193.653125633     A.U. after   14 cycles
 SCF Done:  E(UM062X) =  -193.653782261     A.U. after   12 cycles
 SCF Done:  E(UM062X) =  -193.653841553     A.U. after   11 cycles
 SCF Done:  E(UM062X) =  -193.653845725     A.U. after    9 cycles
 SCF Done:  E(UM062X) =  -193.653847142     A.U. after    9 cycles
 SCF Done:  E(UM062X) =  -193.653847414     A.U. after    8 cycles
 SCF Done:  E(UM062X) =  -193.653847429     A.U. after    7 cycles
 SCF Done:  E(UM062X) =  -193.653847436     A.U. after    7 cycles
 SCF Done:  E(UM062X) =  -193.653847440     A.U. after    7 cycles
 SCF Done:  E(UM062X) =  -193.653847451     A.U. after    6 cycles
 SCF Done:  E(UM062X) =  -193.653847511     A.U. after    7 cycles
 SCF Done:  E(UM062X) =  -193.653847571     A.U. after    7 cycles
 SCF Done:  E(UM062X) =  -193.653847608     A.U. after    7 cycles
 SCF Done:  E(UM062X) =  -193.653847624     A.U. after    7 cycles
 SCF Done:  E(UM062X) =  -193.653847624     A.U. after    4 cycles
 SCF Done:  E(UM062X) =  -193.653847624     A.U. after    2 cycles
 SCF Done:  E(UM062X) =  -193.653847624     A.U. after    2 cycles
 Optimization completed.
    -- Stationary point found.
 Normal termination of Gaussian 16 at Tue Apr  9 01:33:51 2019.

 ----------------------------------------------------------------------
 #P Geom=AllCheck Guess=TCheck SCRF=Check Test GenChk UM062X/6-311+G(2d
 f,2p) Freq
 ----------------------------------------------------------------------

 Structure from the checkpoint file:  "/scratch/underkoffler.c/gaussian_scratch/Gau-11006.chk"
 ------------------------------
 Gaussian input prepared by ASE
 ------------------------------
 Charge =  0 Multiplicity = 2

                         Standard orientation:
 ---------------------------------------------------------------------
 Center     Atomic      Atomic             Coordinates (Angstroms)
 Number     Number       Type             X           Y           Z
 ---------------------------------------------------------------------
      1          8           0       -0.693521    0.685591    0.149328
      2          6           0        1.464606   -0.523019    0.042364
      3          6           0       -1.394059   -0.522388   -0.052033
      4          6           0        0.624935    0.686319   -0.178995
      5          1           0        1.133330   -1.379335   -0.547934
      6          1           0        2.490910   -0.301495   -0.242703
      7          1           0        1.471133   -0.836384    1.095073
      8          1           0       -1.301930   -0.854143   -1.089276
      9          1           0       -1.032376   -1.311217    0.610581
     10          1           0       -2.437329   -0.319275    0.171542
     11          1           0        1.051531    1.671650   -0.059917
 ---------------------------------------------------------------------

 SCF Done:  E(UM062X) =  -193.653847624     A.U. after    1 cycles

 The electronic state is 2-A.
 Alpha  occ. eigenvalues --  -19.64784 -10.58316 -10.57698 -10.53285  -1.18693
 Alpha  occ. eigenvalues --   -0.85770  -0.80215  -0.66974  -0.57992  -0.55498
 Alpha  occ. eigenvalues --   -0.54289  -0.48109  -0.46750  -0.44436  -0.41814
 Alpha  occ. eigenvalues --   -0.38358  -0.21984
 Alpha virt. eigenvalues --    0.01544   0.03182   0.03590   0.04810   0.06400
 Alpha virt. eigenvalues --    0.07244   0.07749   0.09013   0.09693   0.11433
 Alpha virt. eigenvalues --    0.13108   0.15138   0.16981   0.18084   0.21283

  Beta  occ. eigenvalues --  -19.64424 -10.58319 -10.56967 -10.53320  -1.17456
  Beta  occ. eigenvalues --   -0.84318  -0.79895  -0.65304  -0.57121  -0.53710
  Beta  occ. eigenvalues --   -0.53062  -0.46854  -0.46465  -0.43957  -0.39937
  Beta  occ. eigenvalues --   -0.36783
  Beta virt. eigenvalues --   -0.00495   0.01867   0.03204   0.03719   0.04714
  Beta virt. eigenvalues --    0.06349   0.07117   0.07674   0.08460   0.10092
  Beta virt. eigenvalues --    0.11350   0.12314   0.13920   0.16858   0.18422

 Mulliken charges and spin densities:
               1          2
     1  O   -0.126534   0.058445
     2  C   -0.381153  -0.045661
     3  C   -0.298355   0.008034
     4  C   -0.184021   0.931831
     5  H    0.139428   0.021107
     6  H    0.138498   0.002579
     7  H    0.145664   0.052058
     8  H    0.136347   0.007175
     9  H    0.134560   0.002074
    10  H    0.135803  -0.000340
    11  H    0.159762  -0.037302
 Sum of Mulliken charges =  -0.00000   1.00000

 Dipole moment (field-independent basis, Debye):
    X=              0.1958    Y=             -1.4406    Z=              0.1131  Tot=              1.4582
 Quadrupole moment (field-independent basis, Debye-Ang):
   XX=            -23.8564   YY=            -26.4672   ZZ=            -27.3778
   XY=              1.9759   XZ=              0.4808   YZ=              0.1515

  Exact polarizability:  48.871   1.632  41.463  -0.196  -1.358  38.027
 Approx polarizability:  49.481   1.045  46.856  -0.436  -0.666  44.430

                      1                      2                      3
                      A                      A                      A
 Frequencies --    164.1419               193.2538               266.9057
 Red. masses --      1.6742                 1.0550                 1.4104
 Frc consts  --      0.0266                 0.0232                 0.0592
 IR Inten    --      3.7982                 0.1943                 3.1016

                      4                      5                      6
                      A                      A                      A
 Frequencies --    323.7106               499.3436               610.0974
 Red. masses --      2.4500                 2.0232                 1.4307
 Frc consts  --      0.1513                 0.2972                 0.3138
 IR Inten    --      1.5783                10.2936                19.6854

                      7                      8                      9
                      A                      A                      A
 Frequencies --    895.7250              1010.9268              1045.9470
 Red. masses --      2.4639                 1.4961                 2.3702
 Frc consts  --      1.1647                 0.9009                 1.5278
 IR Inten    --     13.5992                 3.4543                21.4959

                     10                     11                     12
                      A                      A                      A
 Frequencies --   1130.1002              1180.3436              1218.8227
 Red. masses --      2.1446                 1.2813                 1.4825
 Frc consts  --      1.6137                 1.0518                 1.2975
 IR Inten    --      6.3700                 2.0996                 5.5510

                     13                     14                     15
                      A                      A                      A
 Frequencies --   1319.8326              1385.0106              1432.0656
 Red. masses --      3.3147                 1.2261                 1.4963
 Frc consts  --      3.4019                 1.3858                 1.8079
 IR Inten    --    170.7739                 6.3338                47.7177

                     16                     17                     18
                      A                      A                      A
 Frequencies --   1475.7416              1484.6536              1496.6077
 Red. masses --      1.0532                 1.1052                 1.1304
 Frc consts  --      1.3514                 1.4353                 1.4917
 IR Inten    --     10.4008                 8.0106                 2.4761

                     19                     20                     21
                      A                      A                      A
 Frequencies --   1508.9282              1519.3965              2992.7120
 Red. masses --      1.0572                 1.0756                 1.0570
 Frc consts  --      1.4183                 1.4630                 5.5779
 IR Inten    --      9.7241                16.2098                26.7664

                     22                     23                     24
                      A                      A                      A
 Frequencies --   3040.7391              3082.8122              3101.7928
 Red. masses --      1.0358                 1.0795                 1.1041
 Frc consts  --      5.6428                 6.0446                 6.2587
 IR Inten    --     37.9591                14.9953                30.0097

                     25                     26                     27
                      A                      A                      A
 Frequencies --   3146.6558              3165.1069              3215.7244
 Red. masses --      1.0958                 1.0998                 1.0890
 Frc consts  --      6.3928                 6.4914                 6.6349
 IR Inten    --      9.7723                16.3658                17.1711

 - Thermochemistry -
 -------------------
 Temperature   298.150 Kelvin.  Pressure   1.00000 Atm.
 Atom     1 has atomic number  8 and mass  15.99491

 Molecular mass:    59.04969 amu.
 Principal axes and moments of inertia in atomic units:
                           1         2         3
     Eigenvalues --   112.75190 303.63933 388.08014
           X            0.99963   0.02564   0.00882
           Y           -0.02560   0.99966  -0.00402
           Z           -0.00892   0.00379   0.99995
 This molecule is an asymmetric top.
 Rotational symmetry number  1.
 Rotational temperatures (Kelvin)      0.76818     0.28525     0.22319
 Rotational constants (GHZ):          16.00630     5.94370     4.65043
 Zero-point vibrational energy     250660.1 (Joules/Mol)
                                   59.90920 (Kcal/Mol)
 Warning -- explicit consideration of   6 degrees of freedom as
           vibrations may cause significant error
 Vibrational temperatures:    236.16   278.05   384.02   465.75   718.44
          (Kelvin)            877.79  1288.75  1454.50  1504.88  1625.96
                             1698.25  1753.61  1898.94  1992.72  2060.42
                             2123.26  2136.09  2153.28  2171.01  2186.07
                             4305.85  4374.95  4435.48  4462.79  4527.34
                             4553.88  4626.71

 Zero-point correction=                           0.095471 (Hartree/Particle)
 Thermal correction to Energy=                    0.100955
 Thermal correction to Enthalpy=                  0.101899
 Thermal correction to Gibbs Free Energy=         0.067266
 Sum of electronic and zero-point Energies=           -193.558376
 Sum of electronic and thermal Energies=              -193.552893
 Sum of electronic and thermal Enthalpies=            -193.551949
 Sum of electronic and thermal Free Energies=         -193.586581

                     E (Thermal)             CV                S
                      KCal/Mol        Cal/Mol-Kelvin    Cal/Mol-Kelvin
 Total                   63.350             17.913             72.890
 Electronic               0.000              0.000              1.377
 Translational            0.889              2.981             38.148
 Rotational               0.889              2.981             24.100
 Vibrational             61.572             11.951              9.265
 Vibration     1          0.623              1.886              2.502
 Vibration     2          0.635              1.849              2.196
 Vibration     3          0.672              1.734              1.616
 Vibration     4          0.708              1.628              1.291
 Vibration     5          0.855              1.251              0.660
 Vibration     6          0.969              1.010              0.433

 Optimization completed.
    -- Stationary point found.
 Normal termination of Gaussian 16 at Tue Apr  9 01:36:30 2019.
