 Gaussian 16, Revision A.03,
 Gaussian 16:  EM64L-G16RevA.03 25-Dec-2016

 ----------------------------------------------
 #p m062x/6-311+g(2df,2p) Opt=(CalcFC,ModRedun)
 ----------------------------------------------

 ----------------------------------------
 Gaussian Input Prepared from Scan Object
 ----------------------------------------
 Symbolic Z-matrix:
 Charge =  0 Multiplicity = 2

 SCF Done:  E(UM062X) =  -193.653847624     A.U. after   14 cycles

  Exact polarizability:   0.000   0.000   0.000   0.000   0.000   0.000
 Approx polarizability:  49.481   1.045  46.856  -0.436  -0.666  44.430

 Optimization completed.
    -- Stationary point found.
 SCF Done:  E(UM062X) =  -193.652641800     A.U. after   11 cycles
 SCF Done:  E(UM062X) =  -193.653604272     A.U. after   12 cycles
 SCF Done:  E(UM062X) =  -193.653606391     A.U. after    8 cycles
 Optimization completed.
 SCF Done:  E(UM062X) =  -193.651950677     A.U. after   12 cycles
 SCF Done:  E(UM062X) =  -193.652955355     A.U. after   11 cycles
 SCF Done:  E(UM062X) =  -193.652959636     A.U. after    9 cycles
 SCF Done:  E(UM062X) =  -193.652959780     A.U. after    7 cycles
 SCF Done:  E(UM062X) =  -193.651039313     A.U. after   12 cycles
 SCF Done:  E(UM062X) =  -193.652096972     A.U. after   11 cycles
 SCF Done:  E(UM062X) =  -193.652925119     A.U. after   11 cycles
 SCF Done:  E(UM062X) =  -193.652927192     A.U. after   10 cycles
 SCF Done:  E(UM062X) =  -193.652927495     A.U. after    8 cycles
 SCF Done:  E(UM062X) =  -193.652611569     A.U. after   11 cycles
 SCF Done:  E(UM062X) =  -193.653599012     A.U. after   11 cycles
 SCF Done:  E(UM062X) =  -193.653600778     A.U. after    9 cycles
 SCF Done:  E(UM062X) =  -193.653600857     A.U. after    7 cycles
    -- Stationary point found.
 SCF Done:  E(UM062X) =  -193.652897304     A.U. after   10 cycles
 SCF Done:  E(UM062X) =  -193.653846131     A.U. after   12 cycles
 SCF Done:  E(UM062X) =  -193.653847617     A.U. after    8 cycles
 Optimization completed.
    -- Stationary point found.

                         Standard orientation:
 ---------------------------------------------------------------------
 Center     Atomic      Atomic             Coordinates (Angstroms)
 Number     Number       Type             X           Y           Z
 ---------------------------------------------------------------------
      1          8           0       -0.693495    0.685539    0.149409
      2          6           0        1.464674   -0.523008    0.042376
      3          6           0       -1.394158   -0.522326   -0.052064
      4          6           0        0.624939    0.686270   -0.179047
      5          1           0        1.470963   -0.836469    1.095054
      6          1           0        2.491033   -0.301311   -0.242366
      7          1           0        1.133673   -1.379291   -0.548121
      8          1           0       -2.437421   -0.319288    0.171649
      9          1           0       -1.302121   -0.853937   -1.089368
     10          1           0       -1.032436   -1.311248    0.610395
     11          1           0        1.051540    1.671618   -0.060111
 ---------------------------------------------------------------------

 The electronic state is 2-A.
 Alpha  occ. eigenvalues --  -19.64784 -10.58316 -10.57699 -10.53285  -1.18693
 Alpha  occ. eigenvalues --   -0.85771  -0.80215  -0.66974  -0.57992  -0.55498
 Alpha  occ. eigenvalues --   -0.54289  -0.48109  -0.46751  -0.44436  -0.41814
 Alpha  occ. eigenvalues --   -0.38356  -0.21985
 Alpha virt. eigenvalues --    0.01544   0.03182   0.03590   0.04810   0.06400
 Alpha virt. eigenvalues --    0.07244   0.07749   0.09013   0.09693   0.11434
 Alpha virt. eigenvalues --    0.13107   0.15138   0.16982   0.18083   0.21284

  Beta  occ. eigenvalues --  -19.64424 -10.58318 -10.56967 -10.53320  -1.17456
  Beta  occ. eigenvalues --   -0.84318  -0.79894  -0.65305  -0.57121  -0.53710
  Beta  occ. eigenvalues --   -0.53062  -0.46855  -0.46466  -0.43956  -0.39937
  Beta  occ. eigenvalues --   -0.36782
  Beta virt. eigenvalues --   -0.00495   0.01867   0.03204   0.03719   0.04714
  Beta virt. eigenvalues --    0.06349   0.07117   0.07674   0.08460   0.10092
  Beta virt. eigenvalues --    0.11350   0.12314   0.13920   0.16859   0.18421

 Mulliken charges and spin densities:
               1          2
     1  O   -0.126542   0.058431
     2  C   -0.381187  -0.045656
     3  C   -0.298337   0.008042
     4  C   -0.184002   0.931839
     5  H    0.145663   0.052047
     6  H    0.138497   0.002577
     7  H    0.139444   0.021119
     8  H    0.135801  -0.000341
     9  H    0.136342   0.007174
    10  H    0.134551   0.002072
    11  H    0.159769  -0.037303
 Sum of Mulliken charges =  -0.00000   1.00000

 Dipole moment (field-independent basis, Debye):
    X=              0.1958    Y=             -1.4404    Z=              0.1129  Tot=              1.4580
 Quadrupole moment (field-independent basis, Debye-Ang):
   XX=            -23.8556   YY=            -26.4673   ZZ=            -27.3779
   XY=              1.9760   XZ=              0.4808   YZ=              0.1511

 Normal termination of Gaussian 16 at Tue Mar 12 01:44:07 2019.
