 Gaussian 16, Revision A.03,
 Gaussian 16:  EM64L-G16RevA.03 25-Dec-2016

 ----------------------------------------------------------------------
 #p m062x/6-311+g(2df,2p) opt=(calcfc,verytight,gdiis,maxcycles=900) fr
 eq iop(7/33=1,2/16=3)
 ----------------------------------------------------------------------

 ------------------------------
 Gaussian input prepared by ASE
 ------------------------------
 Symbolic Z-matrix:
 Charge =  0 Multiplicity = 2

 SCF Done:  E(UM062X) =  -306.989372189     A.U. after   15 cycles
 SCF Done:  E(UM062X) =  -307.002323483     A.U. after   13 cycles
 SCF Done:  E(UM062X) =  -307.003262908     A.U. after   13 cycles
 SCF Done:  E(UM062X) =  -307.003462448     A.U. after   12 cycles
 SCF Done:  E(UM062X) =  -307.003491701     A.U. after   11 cycles
 SCF Done:  E(UM062X) =  -307.003495520     A.U. after   10 cycles
 SCF Done:  E(UM062X) =  -307.003496346     A.U. after    9 cycles
 SCF Done:  E(UM062X) =  -307.003496585     A.U. after    8 cycles
 SCF Done:  E(UM062X) =  -307.003496619     A.U. after    7 cycles
 SCF Done:  E(UM062X) =  -307.003496625     A.U. after    7 cycles
 SCF Done:  E(UM062X) =  -307.003496626     A.U. after    5 cycles
 SCF Done:  E(UM062X) =  -307.003496626     A.U. after    4 cycles
 SCF Done:  E(UM062X) =  -307.003496626     A.U. after    3 cycles
 SCF Done:  E(UM062X) =  -307.003496626     A.U. after    3 cycles
 SCF Done:  E(UM062X) =  -307.003496626     A.U. after    2 cycles
 SCF Done:  E(UM062X) =  -307.003496626     A.U. after    2 cycles
 Optimization completed.
    -- Stationary point found.
 Normal termination of Gaussian 16 at Sat Mar  9 02:22:50 2019.

 ----------------------------------------------------------------------
 #P Geom=AllCheck Guess=TCheck SCRF=Check Test GenChk UM062X/6-311+G(2d
 f,2p) Freq
 ----------------------------------------------------------------------

 Structure from the checkpoint file:  "/scratch/underkoffler.c/gaussian_scratch/Gau-381.chk"
 ------------------------------
 Gaussian input prepared by ASE
 ------------------------------
 Charge =  0 Multiplicity = 2

                         Standard orientation:
 ---------------------------------------------------------------------
 Center     Atomic      Atomic             Coordinates (Angstroms)
 Number     Number       Type             X           Y           Z
 ---------------------------------------------------------------------
      1          8           0       -0.754134   -0.665017   -0.282784
      2          8           0       -0.409206    1.468735    0.295940
      3          6           0        1.441252    0.160720   -0.547685
      4          6           0       -2.110694   -0.527134    0.134397
      5          6           0        0.004524    0.429759   -0.135235
      6          6           0        2.120086   -0.685282    0.473522
      7          1           0        1.926336    1.128035   -0.651034
      8          1           0        1.423521   -0.343667   -1.514858
      9          1           0       -2.576927   -1.490383   -0.042592
     10          1           0       -2.155906   -0.266686    1.189998
     11          1           0       -2.606527    0.250858   -0.442562
     12          1           0        1.953665   -1.750563    0.489577
     13          1           0        2.611549   -0.225713    1.316233
 ---------------------------------------------------------------------

 SCF Done:  E(UM062X) =  -307.003496626     A.U. after    1 cycles

 The electronic state is 2-A.
 Alpha  occ. eigenvalues --  -19.67284 -19.61597 -10.67383 -10.59162 -10.55766
 Alpha  occ. eigenvalues --  -10.55723  -1.24266  -1.14753  -0.90329  -0.82163
 Alpha  occ. eigenvalues --   -0.73007  -0.65531  -0.58952  -0.57592  -0.57260
 Alpha  occ. eigenvalues --   -0.53612  -0.49866  -0.49074  -0.44872  -0.43941
 Alpha  occ. eigenvalues --   -0.43690  -0.38259  -0.36973  -0.27443
 Alpha virt. eigenvalues --    0.01475   0.02792   0.03248   0.04172   0.04899
 Alpha virt. eigenvalues --    0.05781   0.06260   0.06578   0.08026   0.09151
 Alpha virt. eigenvalues --    0.09339   0.10766   0.11492   0.13008   0.13681

  Beta  occ. eigenvalues --  -19.67268 -19.61567 -10.67272 -10.59162 -10.55810
  Beta  occ. eigenvalues --  -10.55052  -1.24172  -1.14661  -0.89088  -0.81484
  Beta  occ. eigenvalues --   -0.70180  -0.65288  -0.58401  -0.57364  -0.56964
  Beta  occ. eigenvalues --   -0.52834  -0.49296  -0.48593  -0.44353  -0.43553
  Beta  occ. eigenvalues --   -0.43386  -0.38132  -0.35978
  Beta virt. eigenvalues --   -0.03996   0.01006   0.02448   0.03196   0.04099
  Beta virt. eigenvalues --    0.04738   0.05925   0.06185   0.07349   0.08012
  Beta virt. eigenvalues --    0.08933   0.09298   0.10561   0.12277   0.12488

 Mulliken charges and spin densities:
               1          2
     1  O   -0.145704   0.007847
     2  O   -0.378642   0.016381
     3  C   -0.382941  -0.041496
     4  C   -0.192508   0.004995
     5  C    0.288409   0.013805
     6  C   -0.317933   1.051221
     7  H    0.173280   0.009539
     8  H    0.178079   0.017251
     9  H    0.133450  -0.000009
    10  H    0.141606   0.000235
    11  H    0.140214   0.000335
    12  H    0.180471  -0.040820
    13  H    0.182220  -0.039284
 Sum of Mulliken charges =  -0.00000   1.00000

 Dipole moment (field-independent basis, Debye):
    X=             -0.1258    Y=             -1.7346    Z=             -0.4644  Tot=              1.8001
 Quadrupole moment (field-independent basis, Debye-Ang):
   XX=            -31.8836   YY=            -40.6269   ZZ=            -35.6665
   XY=              2.5255   XZ=             -0.0192   YZ=             -1.7365

  Exact polarizability:  64.188  -0.763  54.331   0.047   0.452  46.100
 Approx polarizability:  62.930  -1.661  66.676  -0.260   2.900  55.494

                      1                      2                      3
                      A                      A                      A
 Frequencies --     44.8538               112.5835               136.5796
 Red. masses --      2.9289                 1.0218                 2.6370
 Frc consts  --      0.0035                 0.0076                 0.0290
 IR Inten    --      0.5595                 0.4790                 2.7768

                      4                      5                      6
                      A                      A                      A
 Frequencies --    171.0851               255.8384               306.2927
 Red. masses --      1.1426                 3.0846                 2.9738
 Frc consts  --      0.0197                 0.1190                 0.1644
 IR Inten    --      0.0173                 6.7077                 9.8625

                      7                      8                      9
                      A                      A                      A
 Frequencies --    428.8303               500.5465               637.9761
 Red. masses --      3.0990                 1.5350                 4.3707
 Frc consts  --      0.3358                 0.2266                 1.0481
 IR Inten    --     11.9102                41.6492                15.0854

                     10                     11                     12
                      A                      A                      A
 Frequencies --    772.4748               807.3485               890.6120
 Red. masses --      2.0064                 2.0674                 3.7305
 Frc consts  --      0.7054                 0.7939                 1.7434
 IR Inten    --      4.0672                 6.4125                16.3796

                     13                     14                     15
                      A                      A                      A
 Frequencies --   1038.3545              1080.7580              1123.1814
 Red. masses --      2.4579                 2.8693                 3.0537
 Frc consts  --      1.5614                 1.9746                 2.2698
 IR Inten    --      6.3997                 0.4571                48.7584

                     16                     17                     18
                      A                      A                      A
 Frequencies --   1189.5728              1220.9920              1250.5770
 Red. masses --      1.2884                 1.5266                 1.5354
 Frc consts  --      1.0742                 1.3409                 1.4148
 IR Inten    --      1.5168                 8.3183               115.7523

                     19                     20                     21
                      A                      A                      A
 Frequencies --   1298.6719              1322.8659              1463.9258
 Red. masses --      1.5175                 2.2553                 1.1281
 Frc consts  --      1.5079                 2.3254                 1.4244
 IR Inten    --     46.4541               262.3427                 3.0968

                     22                     23                     24
                      A                      A                      A
 Frequencies --   1478.2794              1487.3474              1497.8058
 Red. masses --      1.1324                 1.2228                 1.0423
 Frc consts  --      1.4580                 1.5938                 1.3776
 IR Inten    --      3.2774                20.1622                 9.5994

                     25                     26                     27
                      A                      A                      A
 Frequencies --   1511.2023              1849.9020              3081.7345
 Red. masses --      1.0470                11.2553                 1.0612
 Frc consts  --      1.4088                22.6937                 5.9377
 IR Inten    --     10.4304               317.5728                 5.7410

                     28                     29                     30
                      A                      A                      A
 Frequencies --   3084.0223              3154.1941              3156.1272
 Red. masses --      1.0311                 1.1020                 1.1065
 Frc consts  --      5.7782                 6.4599                 6.4939
 IR Inten    --     25.0490                 2.7432                13.4453

                     31                     32                     33
                      A                      A                      A
 Frequencies --   3182.4213              3191.8055              3291.8115
 Red. masses --      1.0498                 1.1061                 1.1205
 Frc consts  --      6.2644                 6.6394                 7.1537
 IR Inten    --      6.1388                10.0104                 2.2517

 - Thermochemistry -
 -------------------
 Temperature   298.150 Kelvin.  Pressure   1.00000 Atm.
 Atom     1 has atomic number  8 and mass  15.99491

 Molecular mass:    87.04460 amu.
 Principal axes and moments of inertia in atomic units:
                           1         2         3
     Eigenvalues --   270.14500 694.67776 852.75850
           X            0.99993   0.01172  -0.00226
           Y           -0.01180   0.99917  -0.03909
           Z            0.00180   0.03911   0.99923
 This molecule is an asymmetric top.
 Rotational symmetry number  1.
 Rotational temperatures (Kelvin)      0.32062     0.12468     0.10157
 Rotational constants (GHZ):           6.68064     2.59795     2.11636
 Zero-point vibrational energy     275264.2 (Joules/Mol)
                                   65.78971 (Kcal/Mol)
 Warning -- explicit consideration of   8 degrees of freedom as
           vibrations may cause significant error
 Vibrational temperatures:     64.53   161.98   196.51   246.15   368.09
          (Kelvin)            440.69   616.99   720.17   917.91  1111.42
                             1161.59  1281.39  1493.96  1554.97  1616.01
                             1711.53  1756.74  1799.30  1868.50  1903.31
                             2106.26  2126.91  2139.96  2155.01  2174.28
                             2661.60  4433.93  4437.22  4538.18  4540.96
                             4578.79  4592.30  4736.18

 Zero-point correction=                           0.104843 (Hartree/Particle)
 Thermal correction to Energy=                    0.112438
 Thermal correction to Enthalpy=                  0.113383
 Thermal correction to Gibbs Free Energy=         0.072151
 Sum of electronic and zero-point Energies=           -306.898654
 Sum of electronic and thermal Energies=              -306.891058
 Sum of electronic and thermal Enthalpies=            -306.890114
 Sum of electronic and thermal Free Energies=         -306.931346

                     E (Thermal)             CV                S
                      KCal/Mol        Cal/Mol-Kelvin    Cal/Mol-Kelvin
 Total                   70.556             24.719             86.779
 Electronic               0.000              0.000              1.377
 Translational            0.889              2.981             39.304
 Rotational               0.889              2.981             26.573
 Vibrational             68.779             18.757             19.524
 Vibration     1          0.595              1.979              5.032
 Vibration     2          0.607              1.939              3.224
 Vibration     3          0.614              1.917              2.851
 Vibration     4          0.626              1.878              2.424
 Vibration     5          0.666              1.753              1.690
 Vibration     6          0.697              1.662              1.382
 Vibration     7          0.790              1.407              0.862
 Vibration     8          0.856              1.249              0.657

                           ! Non-Optimized Parameters !
 Normal termination of Gaussian 16 at Sat Mar  9 02:28:15 2019.
