 Gaussian 16, Revision A.03,
 Gaussian 16:  EM64L-G16RevA.03 25-Dec-2016

 ----------------------------------------------
 #p m062x/6-311+g(2df,2p) Opt=(CalcFC,ModRedun)
 ----------------------------------------------

 ----------------------------------------
 Gaussian Input Prepared from Scan Object
 ----------------------------------------
 Symbolic Z-matrix:
 Charge =  0 Multiplicity = 1

 SCF Done:  E(RM062X) =  -233.633236583     A.U. after   11 cycles

  Exact polarizability:   0.000   0.000   0.000   0.000   0.000   0.000
 Approx polarizability:  62.751  -0.711  61.608   0.669   0.331  60.827

 Optimization completed.
    -- Stationary point found.
 SCF Done:  E(RM062X) =  -233.631312191     A.U. after   10 cycles
 SCF Done:  E(RM062X) =  -233.632816296     A.U. after   10 cycles
 SCF Done:  E(RM062X) =  -233.632844930     A.U. after    9 cycles
 Optimization completed.
 SCF Done:  E(RM062X) =  -233.630157436     A.U. after   10 cycles
 SCF Done:  E(RM062X) =  -233.631751989     A.U. after   10 cycles
 SCF Done:  E(RM062X) =  -233.631790597     A.U. after    9 cycles
 SCF Done:  E(RM062X) =  -233.631790775     A.U. after    6 cycles
 SCF Done:  E(RM062X) =  -233.628599620     A.U. after   10 cycles
 SCF Done:  E(RM062X) =  -233.630333043     A.U. after   10 cycles
 SCF Done:  E(RM062X) =  -233.631584248     A.U. after   10 cycles
 SCF Done:  E(RM062X) =  -233.631620037     A.U. after    9 cycles
 SCF Done:  E(RM062X) =  -233.631253418     A.U. after   10 cycles
 SCF Done:  E(RM062X) =  -233.632795533     A.U. after   10 cycles
 SCF Done:  E(RM062X) =  -233.632821031     A.U. after    9 cycles
 SCF Done:  E(RM062X) =  -233.632821229     A.U. after    6 cycles
    -- Stationary point found.
 SCF Done:  E(RM062X) =  -233.631732130     A.U. after   10 cycles
 SCF Done:  E(RM062X) =  -233.633206418     A.U. after   10 cycles
 SCF Done:  E(RM062X) =  -233.633236334     A.U. after    8 cycles
 SCF Done:  E(RM062X) =  -233.633236567     A.U. after    7 cycles
 Optimization completed.
    -- Stationary point found.

                         Standard orientation:
 ---------------------------------------------------------------------
 Center     Atomic      Atomic             Coordinates (Angstroms)
 Number     Number       Type             X           Y           Z
 ---------------------------------------------------------------------
      1          8           0        1.893323   -0.731032   -0.256744
      2          6           0        0.000229    0.703092   -0.225343
      3          6           0       -0.947867   -0.342298    0.351280
      4          6           0        1.433288    0.519264    0.229905
      5          6           0       -2.380632   -0.148012   -0.130048
      6          1           0       -0.913870   -0.291137    1.443166
      7          1           0       -0.590236   -1.334518    0.074670
      8          1           0       -0.331070    1.704230    0.063740
      9          1           0       -0.024998    0.660688   -1.317484
     10          1           0        1.479070    0.544306    1.324908
     11          1           0        2.056380    1.332741   -0.154456
     12          1           0       -2.436664   -0.222470   -1.216931
     13          1           0       -3.050138   -0.897383    0.290555
     14          1           0       -2.758527    0.835684    0.153338
     15          1           0        2.793355   -0.876160    0.037689
 ---------------------------------------------------------------------

 The electronic state is 1-A.
 Alpha  occ. eigenvalues --  -19.61953 -10.57862 -10.52543 -10.52138 -10.51631
 Alpha  occ. eigenvalues --   -1.14352  -0.89185  -0.81400  -0.71335  -0.65698
 Alpha  occ. eigenvalues --   -0.59980  -0.53701  -0.51384  -0.50074  -0.45568
 Alpha  occ. eigenvalues --   -0.44162  -0.42681  -0.39545  -0.38468  -0.37872
 Alpha  occ. eigenvalues --   -0.34703
 Alpha virt. eigenvalues --    0.01274   0.02685   0.03452   0.03992   0.05675
 Alpha virt. eigenvalues --    0.06156   0.06631   0.08094   0.08657   0.09167
 Alpha virt. eigenvalues --    0.10243   0.10964   0.13184   0.15202   0.16367

 Mulliken charges:
               1
     1  O   -0.349513
     2  C   -0.250747
     3  C   -0.202650
     4  C   -0.299200
     5  C   -0.504045
     6  H    0.148903
     7  H    0.181506
     8  H    0.154972
     9  H    0.189164
    10  H    0.138641
    11  H    0.136353
    12  H    0.138339
    13  H    0.134084
    14  H    0.132202
    15  H    0.251989
 Sum of Mulliken charges =  -0.00000

 Dipole moment (field-independent basis, Debye):
    X=              0.8778    Y=              0.9006    Z=              0.8861  Tot=              1.5384
 Quadrupole moment (field-independent basis, Debye-Ang):
   XX=            -28.9043   YY=            -34.0762   ZZ=            -33.9862
   XY=              0.4398   XZ=              1.8040   YZ=             -0.5445

 Normal termination of Gaussian 16 at Tue Apr 23 22:43:41 2019.
