 Gaussian 16, Revision A.03,
 Gaussian 16:  EM64L-G16RevA.03 25-Dec-2016

 ----------------------------------------------
 #p m062x/6-311+g(2df,2p) Opt=(CalcFC,ModRedun)
 ----------------------------------------------

 ----------------------------------------
 Gaussian Input Prepared from Scan Object
 ----------------------------------------
 Symbolic Z-matrix:
 Charge =  0 Multiplicity = 1

 SCF Done:  E(RM062X) =  -233.633236583     A.U. after   11 cycles

  Exact polarizability:   0.000   0.000   0.000   0.000   0.000   0.000
 Approx polarizability:  62.751  -0.711  61.608   0.669   0.331  60.827

 Optimization completed.
    -- Stationary point found.
 SCF Done:  E(RM062X) =  -233.631831001     A.U. after    9 cycles
 SCF Done:  E(RM062X) =  -233.632941877     A.U. after    9 cycles
 SCF Done:  E(RM062X) =  -233.632959392     A.U. after    8 cycles
 Optimization completed.
 SCF Done:  E(RM062X) =  -233.631015642     A.U. after    9 cycles
 SCF Done:  E(RM062X) =  -233.632158546     A.U. after    9 cycles
 SCF Done:  E(RM062X) =  -233.632180794     A.U. after    8 cycles
 SCF Done:  E(RM062X) =  -233.632180872     A.U. after    6 cycles
 SCF Done:  E(RM062X) =  -233.629798619     A.U. after    9 cycles
 SCF Done:  E(RM062X) =  -233.631025094     A.U. after    9 cycles
 SCF Done:  E(RM062X) =  -233.632168271     A.U. after    9 cycles
 SCF Done:  E(RM062X) =  -233.632184931     A.U. after    8 cycles
 SCF Done:  E(RM062X) =  -233.631768102     A.U. after    9 cycles
 SCF Done:  E(RM062X) =  -233.632944580     A.U. after    9 cycles
 SCF Done:  E(RM062X) =  -233.632961146     A.U. after    8 cycles
 SCF Done:  E(RM062X) =  -233.632961429     A.U. after    6 cycles
    -- Stationary point found.
 SCF Done:  E(RM062X) =  -233.632096077     A.U. after    9 cycles
 SCF Done:  E(RM062X) =  -233.633223485     A.U. after    9 cycles
 SCF Done:  E(RM062X) =  -233.633236530     A.U. after    8 cycles
 SCF Done:  E(RM062X) =  -233.633236583     A.U. after    6 cycles
 Optimization completed.
    -- Stationary point found.

                         Standard orientation:
 ---------------------------------------------------------------------
 Center     Atomic      Atomic             Coordinates (Angstroms)
 Number     Number       Type             X           Y           Z
 ---------------------------------------------------------------------
      1          8           0        1.893129   -0.731034   -0.256778
      2          6           0        0.000236    0.703214   -0.225410
      3          6           0       -0.947701   -0.342381    0.351097
      4          6           0        1.433262    0.519281    0.229986
      5          6           0       -2.380560   -0.147992   -0.129900
      6          1           0       -0.913422   -0.291590    1.442993
      7          1           0       -0.590133   -1.334501    0.074078
      8          1           0       -0.331330    1.704246    0.063774
      9          1           0       -0.024881    0.660985   -1.317555
     10          1           0        1.478840    0.544206    1.324995
     11          1           0        2.056601    1.332680   -0.154148
     12          1           0       -2.436746   -0.222119   -1.216799
     13          1           0       -3.049955   -0.897546    0.290556
     14          1           0       -2.758484    0.835583    0.153851
     15          1           0        2.793060   -0.876411    0.037838
 ---------------------------------------------------------------------

 The electronic state is 1-A.
 Alpha  occ. eigenvalues --  -19.61954 -10.57863 -10.52543 -10.52137 -10.51630
 Alpha  occ. eigenvalues --   -1.14353  -0.89185  -0.81399  -0.71335  -0.65698
 Alpha  occ. eigenvalues --   -0.59980  -0.53702  -0.51383  -0.50073  -0.45568
 Alpha  occ. eigenvalues --   -0.44162  -0.42681  -0.39545  -0.38468  -0.37871
 Alpha  occ. eigenvalues --   -0.34703
 Alpha virt. eigenvalues --    0.01274   0.02685   0.03452   0.03992   0.05675
 Alpha virt. eigenvalues --    0.06156   0.06632   0.08093   0.08657   0.09167
 Alpha virt. eigenvalues --    0.10243   0.10964   0.13184   0.15202   0.16368

 Mulliken charges:
               1
     1  O   -0.349515
     2  C   -0.250812
     3  C   -0.202578
     4  C   -0.299139
     5  C   -0.504132
     6  H    0.148898
     7  H    0.181524
     8  H    0.154964
     9  H    0.189173
    10  H    0.138642
    11  H    0.136355
    12  H    0.138337
    13  H    0.134081
    14  H    0.132203
    15  H    0.251997
 Sum of Mulliken charges =  -0.00000

 Dipole moment (field-independent basis, Debye):
    X=              0.8779    Y=              0.9001    Z=              0.8864  Tot=              1.5384
 Quadrupole moment (field-independent basis, Debye-Ang):
   XX=            -28.9055   YY=            -34.0755   ZZ=            -33.9860
   XY=              0.4383   XZ=              1.8050   YZ=             -0.5449

 Normal termination of Gaussian 16 at Wed Mar 13 12:41:00 2019.
