 Gaussian 16, Revision A.03,
 Gaussian 16:  EM64L-G16RevA.03 25-Dec-2016

 ----------------------------------------------
 #p m062x/6-311+g(2df,2p) Opt=(CalcFC,ModRedun)
 ----------------------------------------------

 ----------------------------------------
 Gaussian Input Prepared from Scan Object
 ----------------------------------------
 Symbolic Z-matrix:
 Charge =  0 Multiplicity = 1

 SCF Done:  E(RM062X) =  -233.633030718     A.U. after   12 cycles

  Exact polarizability:   0.000   0.000   0.000   0.000   0.000   0.000
 Approx polarizability:  61.902  -0.079  63.131  -0.357  -0.038  60.972

 Optimization completed.
    -- Stationary point found.
 SCF Done:  E(RM062X) =  -233.631613029     A.U. after    9 cycles
 SCF Done:  E(RM062X) =  -233.632732124     A.U. after    9 cycles
 SCF Done:  E(RM062X) =  -233.632751259     A.U. after    8 cycles
 Optimization completed.
 SCF Done:  E(RM062X) =  -233.630788914     A.U. after    9 cycles
 SCF Done:  E(RM062X) =  -233.631941642     A.U. after   10 cycles
 SCF Done:  E(RM062X) =  -233.631964278     A.U. after    8 cycles
 SCF Done:  E(RM062X) =  -233.631964364     A.U. after    7 cycles
 SCF Done:  E(RM062X) =  -233.629565930     A.U. after    9 cycles
 SCF Done:  E(RM062X) =  -233.630800136     A.U. after   10 cycles
 SCF Done:  E(RM062X) =  -233.630839350     A.U. after    9 cycles
 SCF Done:  E(RM062X) =  -233.630662476     A.U. after    9 cycles
 SCF Done:  E(RM062X) =  -233.631951649     A.U. after   10 cycles
 SCF Done:  E(RM062X) =  -233.631967676     A.U. after    8 cycles
 SCF Done:  E(RM062X) =  -233.631554880     A.U. after    9 cycles
 SCF Done:  E(RM062X) =  -233.632738682     A.U. after    9 cycles
 SCF Done:  E(RM062X) =  -233.632752335     A.U. after    8 cycles
    -- Stationary point found.
 SCF Done:  E(RM062X) =  -233.631891593     A.U. after    9 cycles
 SCF Done:  E(RM062X) =  -233.633016674     A.U. after    9 cycles
 SCF Done:  E(RM062X) =  -233.633030673     A.U. after    8 cycles
 Optimization completed.
    -- Stationary point found.

                         Standard orientation:
 ---------------------------------------------------------------------
 Center     Atomic      Atomic             Coordinates (Angstroms)
 Number     Number       Type             X           Y           Z
 ---------------------------------------------------------------------
      1          8           0        2.028925   -0.668764   -0.266329
      2          6           0        0.006359    0.711176   -0.208687
      3          6           0       -0.941068   -0.370322    0.299637
      4          6           0        1.444073    0.514816    0.245379
      5          6           0       -2.385893   -0.119533   -0.116702
      6          1           0       -0.874775   -0.424337    1.390393
      7          1           0       -0.625973   -1.344395   -0.083940
      8          1           0       -0.337962    1.687731    0.144214
      9          1           0       -0.018248    0.737423   -1.301040
     10          1           0        1.493434    0.524367    1.340638
     11          1           0        2.067910    1.330658   -0.117363
     12          1           0       -2.472958   -0.080978   -1.203150
     13          1           0       -3.050809   -0.902509    0.245532
     14          1           0       -2.741551    0.833087    0.277724
     15          1           0        1.588702   -1.427753    0.119862
 ---------------------------------------------------------------------

 The electronic state is 1-A.
 Alpha  occ. eigenvalues --  -19.61845 -10.57815 -10.53584 -10.52976 -10.52568
 Alpha  occ. eigenvalues --   -1.14311  -0.89844  -0.81819  -0.72701  -0.66605
 Alpha  occ. eigenvalues --   -0.58778  -0.54410  -0.51687  -0.51095  -0.46320
 Alpha  occ. eigenvalues --   -0.45239  -0.42721  -0.40852  -0.39590  -0.38024
 Alpha  occ. eigenvalues --   -0.34658
 Alpha virt. eigenvalues --    0.01418   0.02671   0.02852   0.03831   0.05777
 Alpha virt. eigenvalues --    0.05957   0.06637   0.07518   0.08029   0.08727
 Alpha virt. eigenvalues --    0.10088   0.10699   0.12909   0.14520   0.15575

 Mulliken charges:
               1
     1  O   -0.343147
     2  C   -0.339593
     3  C   -0.180870
     4  C   -0.211464
     5  C   -0.523652
     6  H    0.163513
     7  H    0.150338
     8  H    0.155334
     9  H    0.188122
    10  H    0.143247
    11  H    0.142995
    12  H    0.140329
    13  H    0.135515
    14  H    0.137681
    15  H    0.241652
 Sum of Mulliken charges =  -0.00000

 Dipole moment (field-independent basis, Debye):
    X=             -1.4799    Y=              0.1306    Z=              1.0243  Tot=              1.8046
 Quadrupole moment (field-independent basis, Debye-Ang):
   XX=            -39.0105   YY=            -31.1084   ZZ=            -33.8276
   XY=              1.4422   XZ=              1.8736   YZ=             -0.9049

 Normal termination of Gaussian 16 at Tue Mar 12 01:44:27 2019.
