 Gaussian 16, Revision A.03,
 Gaussian 16:  EM64L-G16RevA.03 25-Dec-2016

 ----------------------------------------------
 #p m062x/6-311+g(2df,2p) Opt=(CalcFC,ModRedun)
 ----------------------------------------------

 ----------------------------------------
 Gaussian Input Prepared from Scan Object
 ----------------------------------------
 Symbolic Z-matrix:
 Charge =  0 Multiplicity = 1

 SCF Done:  E(RM062X) =  -233.633236583     A.U. after   11 cycles

  Exact polarizability:   0.000   0.000   0.000   0.000   0.000   0.000
 Approx polarizability:  62.751  -0.711  61.608   0.669   0.331  60.827

 Optimization completed.
    -- Stationary point found.
 SCF Done:  E(RM062X) =  -233.617208043     A.U. after   11 cycles
 SCF Done:  E(RM062X) =  -233.627622518     A.U. after   11 cycles
 SCF Done:  E(RM062X) =  -233.630445583     A.U. after   10 cycles
 SCF Done:  E(RM062X) =  -233.630479996     A.U. after    9 cycles
 SCF Done:  E(RM062X) =  -233.630480410     A.U. after    8 cycles
 SCF Done:  E(RM062X) =  -233.630480437     A.U. after    6 cycles
 Optimization completed.
 SCF Done:  E(RM062X) =  -233.610405822     A.U. after   10 cycles
 SCF Done:  E(RM062X) =  -233.622656826     A.U. after   11 cycles
 SCF Done:  E(RM062X) =  -233.627741298     A.U. after   11 cycles
 SCF Done:  E(RM062X) =  -233.625156064     A.U. after   10 cycles
 SCF Done:  E(RM062X) =  -233.629916797     A.U. after   10 cycles
 SCF Done:  E(RM062X) =  -233.629995436     A.U. after    9 cycles
 SCF Done:  E(RM062X) =  -233.629997481     A.U. after    8 cycles
 SCF Done:  E(RM062X) =  -233.629997631     A.U. after    6 cycles
    -- Stationary point found.
 SCF Done:  E(RM062X) =  -233.619938220     A.U. after   11 cycles
 SCF Done:  E(RM062X) =  -233.630851244     A.U. after   10 cycles
 SCF Done:  E(RM062X) =  -233.633190952     A.U. after   10 cycles
 SCF Done:  E(RM062X) =  -233.633235148     A.U. after    9 cycles
 SCF Done:  E(RM062X) =  -233.633236556     A.U. after    8 cycles
 Optimization completed.
    -- Stationary point found.

                         Standard orientation:
 ---------------------------------------------------------------------
 Center     Atomic      Atomic             Coordinates (Angstroms)
 Number     Number       Type             X           Y           Z
 ---------------------------------------------------------------------
      1          8           0        1.893676   -0.730699   -0.256862
      2          6           0        0.000183    0.702871   -0.225408
      3          6           0       -0.947885   -0.342795    0.350759
      4          6           0        1.433221    0.519291    0.230169
      5          6           0       -2.380818   -0.147701   -0.129740
      6          1           0       -0.913337   -0.292592    1.442678
      7          1           0       -0.590652   -1.334877    0.073194
      8          1           0       -0.331454    1.703902    0.063636
      9          1           0       -0.024661    0.660630   -1.317580
     10          1           0        1.478849    0.544096    1.325182
     11          1           0        2.056252    1.333031   -0.153761
     12          1           0       -2.437359   -0.221024   -1.216675
     13          1           0       -3.050294   -0.897365    0.290385
     14          1           0       -2.758385    0.835781    0.154827
     15          1           0        2.793434   -0.875982    0.038332
 ---------------------------------------------------------------------

 The electronic state is 1-A.
 Alpha  occ. eigenvalues --  -19.61954 -10.57863 -10.52543 -10.52138 -10.51631
 Alpha  occ. eigenvalues --   -1.14353  -0.89184  -0.81400  -0.71336  -0.65698
 Alpha  occ. eigenvalues --   -0.59980  -0.53701  -0.51384  -0.50074  -0.45568
 Alpha  occ. eigenvalues --   -0.44164  -0.42680  -0.39545  -0.38469  -0.37873
 Alpha  occ. eigenvalues --   -0.34702
 Alpha virt. eigenvalues --    0.01274   0.02685   0.03452   0.03992   0.05674
 Alpha virt. eigenvalues --    0.06156   0.06632   0.08093   0.08656   0.09168
 Alpha virt. eigenvalues --    0.10242   0.10963   0.13184   0.15204   0.16367

 Mulliken charges:
               1
     1  O   -0.349463
     2  C   -0.250671
     3  C   -0.202524
     4  C   -0.299265
     5  C   -0.504185
     6  H    0.148894
     7  H    0.181491
     8  H    0.154934
     9  H    0.189195
    10  H    0.138634
    11  H    0.136356
    12  H    0.138325
    13  H    0.134085
    14  H    0.132222
    15  H    0.251970
 Sum of Mulliken charges =  -0.00000

 Dipole moment (field-independent basis, Debye):
    X=              0.8769    Y=              0.9000    Z=              0.8875  Tot=              1.5383
 Quadrupole moment (field-independent basis, Debye-Ang):
   XX=            -28.9075   YY=            -34.0754   ZZ=            -33.9856
   XY=              0.4398   XZ=              1.8092   YZ=             -0.5455

 Normal termination of Gaussian 16 at Thu Mar 28 23:40:07 2019.
