 Gaussian 16, Revision A.03,
 Gaussian 16:  EM64L-G16RevA.03 25-Dec-2016

 ----------------------------------------------
 #p m062x/6-311+g(2df,2p) Opt=(CalcFC,ModRedun)
 ----------------------------------------------

 ----------------------------------------
 Gaussian Input Prepared from Scan Object
 ----------------------------------------
 Symbolic Z-matrix:
 Charge =  0 Multiplicity = 1

 SCF Done:  E(RM062X) =  -233.633236583     A.U. after   11 cycles

  Exact polarizability:   0.000   0.000   0.000   0.000   0.000   0.000
 Approx polarizability:  62.751  -0.711  61.608   0.669   0.331  60.827

 Optimization completed.
    -- Stationary point found.
 SCF Done:  E(RM062X) =  -233.632080152     A.U. after   10 cycles
 SCF Done:  E(RM062X) =  -233.633137971     A.U. after   10 cycles
 SCF Done:  E(RM062X) =  -233.633142042     A.U. after    8 cycles
 Optimization completed.
 SCF Done:  E(RM062X) =  -233.631840369     A.U. after   10 cycles
 SCF Done:  E(RM062X) =  -233.632882353     A.U. after   10 cycles
 SCF Done:  E(RM062X) =  -233.632886437     A.U. after    8 cycles
 SCF Done:  E(RM062X) =  -233.631496750     A.U. after   10 cycles
 SCF Done:  E(RM062X) =  -233.632532880     A.U. after   10 cycles
 SCF Done:  E(RM062X) =  -233.632535811     A.U. after    8 cycles
 SCF Done:  E(RM062X) =  -233.632484922     A.U. after    8 cycles
 SCF Done:  E(RM062X) =  -233.631690485     A.U. after   10 cycles
 SCF Done:  E(RM062X) =  -233.632868528     A.U. after   10 cycles
 SCF Done:  E(RM062X) =  -233.632871832     A.U. after    8 cycles
 SCF Done:  E(RM062X) =  -233.632010442     A.U. after   10 cycles
 SCF Done:  E(RM062X) =  -233.633138519     A.U. after   10 cycles
 SCF Done:  E(RM062X) =  -233.633141592     A.U. after    8 cycles
    -- Stationary point found.
 SCF Done:  E(RM062X) =  -233.632146588     A.U. after   10 cycles
 SCF Done:  E(RM062X) =  -233.633231472     A.U. after   10 cycles
 SCF Done:  E(RM062X) =  -233.633236572     A.U. after    8 cycles
 Optimization completed.
    -- Stationary point found.

                         Standard orientation:
 ---------------------------------------------------------------------
 Center     Atomic      Atomic             Coordinates (Angstroms)
 Number     Number       Type             X           Y           Z
 ---------------------------------------------------------------------
      1          8           0        1.893063   -0.731067   -0.256764
      2          6           0        0.000228    0.703347   -0.225263
      3          6           0       -0.947626   -0.342537    0.350859
      4          6           0        1.433269    0.519272    0.229924
      5          6           0       -2.380565   -0.147957   -0.129818
      6          1           0       -0.913230   -0.292215    1.442775
      7          1           0       -0.590008   -1.334516    0.073424
      8          1           0       -0.331367    1.704241    0.064365
      9          1           0       -0.024994    0.661610   -1.317430
     10          1           0        1.478922    0.544068    1.324926
     11          1           0        2.056626    1.332639   -0.154258
     12          1           0       -2.436941   -0.221367   -1.216757
     13          1           0       -3.049827   -0.897838    0.290262
     14          1           0       -2.758517    0.835408    0.154636
     15          1           0        2.792989   -0.876243    0.037956
 ---------------------------------------------------------------------

 The electronic state is 1-A.
 Alpha  occ. eigenvalues --  -19.61954 -10.57862 -10.52543 -10.52137 -10.51630
 Alpha  occ. eigenvalues --   -1.14355  -0.89185  -0.81400  -0.71335  -0.65698
 Alpha  occ. eigenvalues --   -0.59980  -0.53704  -0.51383  -0.50074  -0.45569
 Alpha  occ. eigenvalues --   -0.44163  -0.42681  -0.39546  -0.38468  -0.37870
 Alpha  occ. eigenvalues --   -0.34703
 Alpha virt. eigenvalues --    0.01274   0.02685   0.03452   0.03992   0.05675
 Alpha virt. eigenvalues --    0.06156   0.06632   0.08093   0.08657   0.09167
 Alpha virt. eigenvalues --    0.10242   0.10964   0.13184   0.15203   0.16368

 Mulliken charges:
               1
     1  O   -0.349487
     2  C   -0.250818
     3  C   -0.202541
     4  C   -0.299161
     5  C   -0.504164
     6  H    0.148907
     7  H    0.181528
     8  H    0.154972
     9  H    0.189149
    10  H    0.138649
    11  H    0.136353
    12  H    0.138325
    13  H    0.134083
    14  H    0.132212
    15  H    0.251992
 Sum of Mulliken charges =  -0.00000

 Dipole moment (field-independent basis, Debye):
    X=              0.8779    Y=              0.9003    Z=              0.8864  Tot=              1.5385
 Quadrupole moment (field-independent basis, Debye-Ang):
   XX=            -28.9056   YY=            -34.0762   ZZ=            -33.9859
   XY=              0.4391   XZ=              1.8052   YZ=             -0.5454

 Normal termination of Gaussian 16 at Wed Mar 13 12:37:42 2019.
