 Gaussian 16, Revision A.03,
 Gaussian 16:  EM64L-G16RevA.03 25-Dec-2016

 ----------------------------------------------
 #p m062x/6-311+g(2df,2p) Opt=(CalcFC,ModRedun)
 ----------------------------------------------

 ----------------------------------------
 Gaussian Input Prepared from Scan Object
 ----------------------------------------
 Symbolic Z-matrix:
 Charge =  0 Multiplicity = 1

 SCF Done:  E(RM062X) =  -233.633030718     A.U. after   12 cycles

  Exact polarizability:   0.000   0.000   0.000   0.000   0.000   0.000
 Approx polarizability:  61.902  -0.079  63.131  -0.357  -0.038  60.972

 Optimization completed.
    -- Stationary point found.
 SCF Done:  E(RM062X) =  -233.631873778     A.U. after   10 cycles
 SCF Done:  E(RM062X) =  -233.632922328     A.U. after   10 cycles
 SCF Done:  E(RM062X) =  -233.632924788     A.U. after    8 cycles
 Optimization completed.
 SCF Done:  E(RM062X) =  -233.631600451     A.U. after   10 cycles
 SCF Done:  E(RM062X) =  -233.632651577     A.U. after   10 cycles
 SCF Done:  E(RM062X) =  -233.632655008     A.U. after    8 cycles
 SCF Done:  E(RM062X) =  -233.631246229     A.U. after   10 cycles
 SCF Done:  E(RM062X) =  -233.632313172     A.U. after   10 cycles
 SCF Done:  E(RM062X) =  -233.632315450     A.U. after    8 cycles
 SCF Done:  E(RM062X) =  -233.631461578     A.U. after   10 cycles
 SCF Done:  E(RM062X) =  -233.632607637     A.U. after   10 cycles
 SCF Done:  E(RM062X) =  -233.632608713     A.U. after    7 cycles
 SCF Done:  E(RM062X) =  -233.631826368     A.U. after   10 cycles
 SCF Done:  E(RM062X) =  -233.632922766     A.U. after   10 cycles
 SCF Done:  E(RM062X) =  -233.632924579     A.U. after    8 cycles
    -- Stationary point found.
 SCF Done:  E(RM062X) =  -233.631967272     A.U. after   10 cycles
 SCF Done:  E(RM062X) =  -233.633029285     A.U. after   10 cycles
 SCF Done:  E(RM062X) =  -233.633030724     A.U. after    7 cycles
 SCF Done:  E(RM062X) =  -233.633030708     A.U. after    6 cycles
 Optimization completed.
    -- Stationary point found.

                         Standard orientation:
 ---------------------------------------------------------------------
 Center     Atomic      Atomic             Coordinates (Angstroms)
 Number     Number       Type             X           Y           Z
 ---------------------------------------------------------------------
      1          8           0        2.029099   -0.668599   -0.266155
      2          6           0        0.006359    0.711074   -0.208722
      3          6           0       -0.941014   -0.370800    0.299037
      4          6           0        1.444043    0.514910    0.245477
      5          6           0       -2.386022   -0.119279   -0.116345
      6          1           0       -0.874469   -0.425591    1.389717
      7          1           0       -0.626032   -1.344555   -0.085435
      8          1           0       -0.338244    1.687423    0.144491
      9          1           0       -0.018190    0.737718   -1.301065
     10          1           0        1.493288    0.524444    1.340743
     11          1           0        2.067826    1.330850   -0.117155
     12          1           0       -2.473289   -0.079860   -1.202726
     13          1           0       -3.050894   -0.902465    0.245509
     14          1           0       -2.741662    0.833058    0.278795
     15          1           0        1.588686   -1.427663    0.119675
 ---------------------------------------------------------------------

 The electronic state is 1-A.
 Alpha  occ. eigenvalues --  -19.61845 -10.57815 -10.53585 -10.52976 -10.52569
 Alpha  occ. eigenvalues --   -1.14311  -0.89843  -0.81819  -0.72702  -0.66605
 Alpha  occ. eigenvalues --   -0.58778  -0.54408  -0.51687  -0.51097  -0.46321
 Alpha  occ. eigenvalues --   -0.45236  -0.42725  -0.40850  -0.39592  -0.38023
 Alpha  occ. eigenvalues --   -0.34658
 Alpha virt. eigenvalues --    0.01418   0.02671   0.02852   0.03831   0.05777
 Alpha virt. eigenvalues --    0.05958   0.06637   0.07517   0.08029   0.08728
 Alpha virt. eigenvalues --    0.10088   0.10698   0.12909   0.14519   0.15574

 Mulliken charges:
               1
     1  O   -0.343147
     2  C   -0.339719
     3  C   -0.180670
     4  C   -0.211446
     5  C   -0.523827
     6  H    0.163514
     7  H    0.150373
     8  H    0.155325
     9  H    0.188125
    10  H    0.143263
    11  H    0.142995
    12  H    0.140313
    13  H    0.135519
    14  H    0.137713
    15  H    0.241668
 Sum of Mulliken charges =  -0.00000

 Dipole moment (field-independent basis, Debye):
    X=             -1.4806    Y=              0.1305    Z=              1.0237  Tot=              1.8048
 Quadrupole moment (field-independent basis, Debye-Ang):
   XX=            -39.0117   YY=            -31.1081   ZZ=            -33.8279
   XY=              1.4415   XZ=              1.8720   YZ=             -0.9037

 Normal termination of Gaussian 16 at Tue Mar 12 01:59:44 2019.
