 Gaussian 16, Revision A.03,
 Gaussian 16:  EM64L-G16RevA.03 25-Dec-2016

 ----------------------------------------------
 #p m062x/6-311+g(2df,2p) Opt=(CalcFC,ModRedun)
 ----------------------------------------------

 ----------------------------------------
 Gaussian Input Prepared from Scan Object
 ----------------------------------------
 Symbolic Z-matrix:
 Charge =  0 Multiplicity = 1

 SCF Done:  E(RM062X) =  -233.633236583     A.U. after   11 cycles

  Exact polarizability:   0.000   0.000   0.000   0.000   0.000   0.000
 Approx polarizability:  62.751  -0.711  61.608   0.669   0.331  60.827

 Optimization completed.
    -- Stationary point found.
 SCF Done:  E(RM062X) =  -233.631928258     A.U. after   10 cycles
 SCF Done:  E(RM062X) =  -233.633136623     A.U. after   10 cycles
 SCF Done:  E(RM062X) =  -233.633138878     A.U. after    8 cycles
 Optimization completed.
 SCF Done:  E(RM062X) =  -233.631616563     A.U. after   10 cycles
 SCF Done:  E(RM062X) =  -233.632866968     A.U. after   10 cycles
 SCF Done:  E(RM062X) =  -233.632871488     A.U. after    8 cycles
 SCF Done:  E(RM062X) =  -233.631191125     A.U. after   10 cycles
 SCF Done:  E(RM062X) =  -233.632500422     A.U. after   10 cycles
 SCF Done:  E(RM062X) =  -233.632503438     A.U. after    8 cycles
 SCF Done:  E(RM062X) =  -233.632497593     A.U. after    7 cycles
 SCF Done:  E(RM062X) =  -233.631711264     A.U. after   10 cycles
 SCF Done:  E(RM062X) =  -233.632872225     A.U. after   10 cycles
 SCF Done:  E(RM062X) =  -233.632873657     A.U. after    7 cycles
 SCF Done:  E(RM062X) =  -233.631972779     A.U. after   10 cycles
 SCF Done:  E(RM062X) =  -233.633139078     A.U. after   10 cycles
 SCF Done:  E(RM062X) =  -233.633140783     A.U. after    8 cycles
    -- Stationary point found.
 SCF Done:  E(RM062X) =  -233.632055014     A.U. after   10 cycles
 SCF Done:  E(RM062X) =  -233.633235597     A.U. after   10 cycles
 SCF Done:  E(RM062X) =  -233.633236580     A.U. after    7 cycles
 Optimization completed.
    -- Stationary point found.

                         Standard orientation:
 ---------------------------------------------------------------------
 Center     Atomic      Atomic             Coordinates (Angstroms)
 Number     Number       Type             X           Y           Z
 ---------------------------------------------------------------------
      1          8           0        1.893187   -0.731028   -0.256796
      2          6           0        0.000240    0.703169   -0.225463
      3          6           0       -0.947763   -0.342248    0.351257
      4          6           0        1.433268    0.519271    0.229997
      5          6           0       -2.380564   -0.148060   -0.129994
      6          1           0       -0.913697   -0.291018    1.443140
      7          1           0       -0.590102   -1.334461    0.074694
      8          1           0       -0.331273    1.704283    0.063494
      9          1           0       -0.024841    0.660689   -1.317597
     10          1           0        1.478755    0.544147    1.325005
     11          1           0        2.056608    1.332681   -0.154106
     12          1           0       -2.436651   -0.222548   -1.216872
     13          1           0       -3.049990   -0.897473    0.290661
     14          1           0       -2.758516    0.835614    0.153388
     15          1           0        2.793131   -0.876476    0.037781
 ---------------------------------------------------------------------

 The electronic state is 1-A.
 Alpha  occ. eigenvalues --  -19.61953 -10.57863 -10.52543 -10.52137 -10.51630
 Alpha  occ. eigenvalues --   -1.14352  -0.89185  -0.81399  -0.71335  -0.65699
 Alpha  occ. eigenvalues --   -0.59980  -0.53701  -0.51384  -0.50073  -0.45568
 Alpha  occ. eigenvalues --   -0.44161  -0.42681  -0.39545  -0.38468  -0.37871
 Alpha  occ. eigenvalues --   -0.34703
 Alpha virt. eigenvalues --    0.01274   0.02685   0.03452   0.03992   0.05675
 Alpha virt. eigenvalues --    0.06156   0.06632   0.08094   0.08656   0.09167
 Alpha virt. eigenvalues --    0.10243   0.10964   0.13183   0.15202   0.16368

 Mulliken charges:
               1
     1  O   -0.349540
     2  C   -0.250795
     3  C   -0.202626
     4  C   -0.299125
     5  C   -0.504094
     6  H    0.148906
     7  H    0.181514
     8  H    0.154964
     9  H    0.189178
    10  H    0.138637
    11  H    0.136354
    12  H    0.138340
    13  H    0.134081
    14  H    0.132203
    15  H    0.252002
 Sum of Mulliken charges =  -0.00000

 Dipole moment (field-independent basis, Debye):
    X=              0.8778    Y=              0.9001    Z=              0.8864  Tot=              1.5383
 Quadrupole moment (field-independent basis, Debye-Ang):
   XX=            -28.9053   YY=            -34.0752   ZZ=            -33.9862
   XY=              0.4380   XZ=              1.8047   YZ=             -0.5449

 Normal termination of Gaussian 16 at Tue Apr 23 22:36:59 2019.
