 Gaussian 16, Revision A.03,
 Gaussian 16:  EM64L-G16RevA.03 25-Dec-2016

 ----------------------------------------------------------------------
 #p m062x/6-311+g(2df,2p) opt=(calcfc,verytight,gdiis,maxcycles=900) fr
 eq iop(7/33=1,2/16=3)
 ----------------------------------------------------------------------

 ------------------------------
 Gaussian input prepared by ASE
 ------------------------------
 Symbolic Z-matrix:
 Charge =  0 Multiplicity = 1

 SCF Done:  E(RM062X) =  -233.618268144     A.U. after   11 cycles
 SCF Done:  E(RM062X) =  -233.625691604     A.U. after   10 cycles
 SCF Done:  E(RM062X) =  -233.622638243     A.U. after   12 cycles
 SCF Done:  E(RM062X) =  -233.626891745     A.U. after   10 cycles
 SCF Done:  E(RM062X) =  -233.629178544     A.U. after   11 cycles
 SCF Done:  E(RM062X) =  -233.629478755     A.U. after    9 cycles
 SCF Done:  E(RM062X) =  -233.627325216     A.U. after   12 cycles
 SCF Done:  E(RM062X) =  -233.630567110     A.U. after   10 cycles
 SCF Done:  E(RM062X) =  -233.631234938     A.U. after   11 cycles
 SCF Done:  E(RM062X) =  -233.631767225     A.U. after   11 cycles
 SCF Done:  E(RM062X) =  -233.632587253     A.U. after    8 cycles
 SCF Done:  E(RM062X) =  -233.632587349     A.U. after    7 cycles
 SCF Done:  E(RM062X) =  -233.632587383     A.U. after    5 cycles
 SCF Done:  E(RM062X) =  -233.632587392     A.U. after    4 cycles
 SCF Done:  E(RM062X) =  -233.632587395     A.U. after    3 cycles
 SCF Done:  E(RM062X) =  -233.632587394     A.U. after    2 cycles
 SCF Done:  E(RM062X) =  -233.632587395     A.U. after    2 cycles
 SCF Done:  E(RM062X) =  -233.632587394     A.U. after    2 cycles
 SCF Done:  E(RM062X) =  -233.632587395     A.U. after    2 cycles
 Optimization completed.
    -- Stationary point found.
 Normal termination of Gaussian 16 at Tue Apr  9 00:28:55 2019.

 ----------------------------------------------------------------------
 #P Geom=AllCheck Guess=TCheck SCRF=Check Test GenChk RM062X/6-311+G(2d
 f,2p) Freq
 ----------------------------------------------------------------------

 Structure from the checkpoint file:  "/scratch/underkoffler.c/gaussian_scratch/Gau-12597.chk"
 ------------------------------
 Gaussian input prepared by ASE
 ------------------------------
 Charge =  0 Multiplicity = 1

                         Standard orientation:
 ---------------------------------------------------------------------
 Center     Atomic      Atomic             Coordinates (Angstroms)
 Number     Number       Type             X           Y           Z
 ---------------------------------------------------------------------
      1          8           0       -1.714397   -0.718721    0.414494
      2          6           0       -0.096250    1.064276   -0.030129
      3          6           0        1.085401    0.323757    0.597295
      4          6           0       -1.179424    0.142626   -0.573483
      5          6           0        1.765209   -0.658534   -0.352953
      6          1           0        0.751090   -0.200163    1.496624
      7          1           0        1.815036    1.058482    0.940632
      8          1           0        0.261941    1.689942   -0.852854
      9          1           0       -0.542400    1.729098    0.711701
     10          1           0       -2.019356    0.732804   -0.937242
     11          1           0       -0.799822   -0.436217   -1.421923
     12          1           0        2.655378   -1.092577    0.100090
     13          1           0        2.066797   -0.160352   -1.275845
     14          1           0        1.105140   -1.482401   -0.629265
     15          1           0       -1.028250   -1.321599    0.707749
 ---------------------------------------------------------------------

 SCF Done:  E(RM062X) =  -233.632587395     A.U. after    1 cycles

 The electronic state is 1-A.
 Alpha  occ. eigenvalues --  -19.61857 -10.57705 -10.53581 -10.53011 -10.52933
 Alpha  occ. eigenvalues --   -1.14305  -0.89848  -0.81579  -0.73756  -0.65801
 Alpha  occ. eigenvalues --   -0.58748  -0.54821  -0.52569  -0.48601  -0.48250
 Alpha  occ. eigenvalues --   -0.46083  -0.41750  -0.40990  -0.39745  -0.38175
 Alpha  occ. eigenvalues --   -0.34509
 Alpha virt. eigenvalues --    0.01012   0.02654   0.02935   0.03662   0.05842
 Alpha virt. eigenvalues --    0.06182   0.06705   0.07013   0.07563   0.10378
 Alpha virt. eigenvalues --    0.10574   0.11490   0.11657   0.12371   0.14624

 Mulliken charges:
               1
     1  O   -0.337071
     2  C   -0.358636
     3  C   -0.323525
     4  C   -0.197199
     5  C   -0.437144
     6  H    0.181609
     7  H    0.155188
     8  H    0.168135
     9  H    0.177186
    10  H    0.147023
    11  H    0.151788
    12  H    0.143505
    13  H    0.150724
    14  H    0.132295
    15  H    0.246123
 Sum of Mulliken charges =  -0.00000

 Dipole moment (field-independent basis, Debye):
    X=              1.7930    Y=              0.1937    Z=             -0.4877  Tot=              1.8682
 Quadrupole moment (field-independent basis, Debye-Ang):
   XX=            -38.0638   YY=            -32.1649   ZZ=            -33.3395
   XY=             -1.7635   XZ=              1.8393   YZ=             -0.9224

  Exact polarizability:  57.813  -1.531  52.932   0.737  -0.175  51.376
 Approx polarizability:  62.035  -0.625  61.679  -0.075  -1.320  61.919

                      1                      2                      3
                      A                      A                      A
 Frequencies --     81.3776               170.1450               248.1415
 Red. masses --      2.9262                 1.4579                 1.0414
 Frc consts  --      0.0114                 0.0249                 0.0378
 IR Inten    --      1.6652                13.3520                80.0807

                      4                      5                      6
                      A                      A                      A
 Frequencies --    273.1484               304.7127               395.6901
 Red. masses --      2.3010                 1.4342                 1.9853
 Frc consts  --      0.1012                 0.0785                 0.1831
 IR Inten    --      1.2050                22.4449                 1.9103

                      7                      8                      9
                      A                      A                      A
 Frequencies --    524.6483               740.5304               825.7575
 Red. masses --      2.3490                 1.1890                 2.2969
 Frc consts  --      0.3809                 0.3842                 0.9228
 IR Inten    --      3.0114                 3.9618                 4.9743

                     10                     11                     12
                      A                      A                      A
 Frequencies --    865.8159               953.3390               983.7827
 Red. masses --      1.4004                 1.8424                 1.4045
 Frc consts  --      0.6185                 0.9866                 0.8009
 IR Inten    --      2.4068                11.2773                 1.4720

                     13                     14                     15
                      A                      A                      A
 Frequencies --   1049.4969              1095.7928              1129.4122
 Red. masses --      1.7290                 1.5839                 2.4591
 Frc consts  --      1.1221                 1.1206                 1.8481
 IR Inten    --     20.6149                27.1019                57.8166

                     16                     17                     18
                      A                      A                      A
 Frequencies --   1154.4752              1215.4543              1265.4866
 Red. masses --      2.2328                 1.3457                 1.3209
 Frc consts  --      1.7533                 1.1713                 1.2463
 IR Inten    --     16.0230                 9.3270                 1.8562

                     19                     20                     21
                      A                      A                      A
 Frequencies --   1312.9062              1369.8120              1382.1783
 Red. masses --      1.1685                 1.3392                 1.4501
 Frc consts  --      1.1867                 1.4805                 1.6322
 IR Inten    --      5.3467                 0.1179                12.1601

                     22                     23                     24
                      A                      A                      A
 Frequencies --   1393.5106              1419.9896              1428.1137
 Red. masses --      1.2807                 1.2470                 1.3544
 Frc consts  --      1.4653                 1.4815                 1.6275
 IR Inten    --      4.3610                 9.0977                23.8218

                     25                     26                     27
                      A                      A                      A
 Frequencies --   1480.2617              1501.3034              1506.6695
 Red. masses --      1.0902                 1.0463                 1.0483
 Frc consts  --      1.4074                 1.3894                 1.4020
 IR Inten    --      4.3736                 1.2606                 8.9655

                     28                     29                     30
                      A                      A                      A
 Frequencies --   1515.6007              1528.1649              3035.8899
 Red. masses --      1.0885                 1.0764                 1.0698
 Frc consts  --      1.4731                 1.4810                 5.8091
 IR Inten    --      9.0940                 3.6377                31.7743

                     31                     32                     33
                      A                      A                      A
 Frequencies --   3049.5557              3054.9538              3058.6607
 Red. masses --      1.0647                 1.0575                 1.0440
 Frc consts  --      5.8340                 5.8150                 5.7545
 IR Inten    --     15.7157                10.0613                32.5982

                     34                     35                     36
                      A                      A                      A
 Frequencies --   3090.7192              3100.3672              3117.2181
 Red. masses --      1.0963                 1.0998                 1.0962
 Frc consts  --      6.1701                 6.2283                 6.2759
 IR Inten    --     11.2303                30.4983                37.0453

                     37                     38                     39
                      A                      A                      A
 Frequencies --   3121.4484              3134.2936              3896.9560
 Red. masses --      1.1020                 1.1009                 1.0662
 Frc consts  --      6.3262                 6.3719                 9.5399
 IR Inten    --     41.6043                23.8255                26.9598

 - Thermochemistry -
 -------------------
 Temperature   298.150 Kelvin.  Pressure   1.00000 Atm.
 Atom     1 has atomic number  8 and mass  15.99491

 Molecular mass:    74.07317 amu.
 Principal axes and moments of inertia in atomic units:
                           1         2         3
     Eigenvalues --   227.68610 572.28559 640.65595
           X            0.99934  -0.03461   0.01123
           Y            0.03433   0.99912   0.02394
           Z           -0.01205  -0.02354   0.99965
 This molecule is an asymmetric top.
 Rotational symmetry number  1.
 Rotational temperatures (Kelvin)      0.38041     0.15135     0.13520
 Rotational constants (GHZ):           7.92644     3.15357     2.81702
 Zero-point vibrational energy     363519.9 (Joules/Mol)
                                   86.88334 (Kcal/Mol)
 Warning -- explicit consideration of   7 degrees of freedom as
           vibrations may cause significant error
 Vibrational temperatures:    117.08   244.80   357.02   393.00   438.41
          (Kelvin)            569.31   754.85  1065.46  1188.08  1245.72
                             1371.64  1415.44  1509.99  1576.60  1624.97
                             1661.03  1748.77  1820.75  1888.98  1970.85
                             1988.65  2004.95  2043.05  2054.74  2129.77
                             2160.04  2167.76  2180.61  2198.69  4367.97
                             4387.63  4395.40  4400.73  4446.86  4460.74
                             4484.98  4491.07  4509.55  5606.85

 Zero-point correction=                           0.138457 (Hartree/Particle)
 Thermal correction to Energy=                    0.145060
 Thermal correction to Enthalpy=                  0.146005
 Thermal correction to Gibbs Free Energy=         0.108640
 Sum of electronic and zero-point Energies=           -233.494130
 Sum of electronic and thermal Energies=              -233.487527
 Sum of electronic and thermal Enthalpies=            -233.486583
 Sum of electronic and thermal Free Energies=         -233.523948

                     E (Thermal)             CV                S
                      KCal/Mol        Cal/Mol-Kelvin    Cal/Mol-Kelvin
 Total                   91.027             22.874             78.641
 Electronic               0.000              0.000              0.000
 Translational            0.889              2.981             38.823
 Rotational               0.889              2.981             25.926
 Vibrational             89.249             16.913             13.891
 Vibration     1          0.600              1.962              3.857
 Vibration     2          0.625              1.879              2.434
 Vibration     3          0.662              1.766              1.744
 Vibration     4          0.676              1.723              1.576
 Vibration     5          0.696              1.665              1.391
 Vibration     6          0.762              1.479              0.979
 Vibration     7          0.880              1.195              0.599

                           ! Non-Optimized Parameters !
 Normal termination of Gaussian 16 at Tue Apr  9 00:32:36 2019.
