 Gaussian 16, Revision A.03,
 Gaussian 16:  EM64L-G16RevA.03 25-Dec-2016

 ----------------------------------------------
 #p m062x/6-311+g(2df,2p) Opt=(CalcFC,ModRedun)
 ----------------------------------------------

 ----------------------------------------
 Gaussian Input Prepared from Scan Object
 ----------------------------------------
 Symbolic Z-matrix:
 Charge =  0 Multiplicity = 1

 SCF Done:  E(RM062X) =  -233.633030718     A.U. after   12 cycles

  Exact polarizability:   0.000   0.000   0.000   0.000   0.000   0.000
 Approx polarizability:  61.902  -0.079  63.131  -0.357  -0.038  60.972

 Optimization completed.
    -- Stationary point found.
 SCF Done:  E(RM062X) =  -233.631621102     A.U. after    9 cycles
 SCF Done:  E(RM062X) =  -233.632733480     A.U. after    9 cycles
 SCF Done:  E(RM062X) =  -233.632752378     A.U. after    8 cycles
 Optimization completed.
 SCF Done:  E(RM062X) =  -233.630794461     A.U. after    9 cycles
 SCF Done:  E(RM062X) =  -233.631942824     A.U. after    9 cycles
 SCF Done:  E(RM062X) =  -233.631967724     A.U. after    9 cycles
 SCF Done:  E(RM062X) =  -233.631967795     A.U. after    7 cycles
 SCF Done:  E(RM062X) =  -233.629575253     A.U. after    9 cycles
 SCF Done:  E(RM062X) =  -233.630807083     A.U. after    9 cycles
 SCF Done:  E(RM062X) =  -233.631954860     A.U. after   10 cycles
 SCF Done:  E(RM062X) =  -233.631964343     A.U. after    8 cycles
 SCF Done:  E(RM062X) =  -233.631555398     A.U. after    9 cycles
 SCF Done:  E(RM062X) =  -233.632737101     A.U. after   10 cycles
 SCF Done:  E(RM062X) =  -233.632751215     A.U. after    8 cycles
 SCF Done:  E(RM062X) =  -233.632751279     A.U. after    6 cycles
    -- Stationary point found.
 SCF Done:  E(RM062X) =  -233.631888352     A.U. after    9 cycles
 SCF Done:  E(RM062X) =  -233.633014740     A.U. after    9 cycles
 SCF Done:  E(RM062X) =  -233.633030602     A.U. after    8 cycles
 SCF Done:  E(RM062X) =  -233.633030713     A.U. after    6 cycles
 Optimization completed.
    -- Stationary point found.

                         Standard orientation:
 ---------------------------------------------------------------------
 Center     Atomic      Atomic             Coordinates (Angstroms)
 Number     Number       Type             X           Y           Z
 ---------------------------------------------------------------------
      1          8           0        2.029117   -0.668582   -0.266169
      2          6           0        0.006358    0.711055   -0.208749
      3          6           0       -0.941017   -0.370774    0.299097
      4          6           0        1.444029    0.514898    0.245502
      5          6           0       -2.386008   -0.119285   -0.116375
      6          1           0       -0.874551   -0.425454    1.389786
      7          1           0       -0.626001   -1.344581   -0.085224
      8          1           0       -0.338249    1.687438    0.144367
      9          1           0       -0.018158    0.737592   -1.301093
     10          1           0        1.493208    0.524393    1.340775
     11          1           0        2.067820    1.330842   -0.117091
     12          1           0       -2.473256   -0.080057   -1.202764
     13          1           0       -3.050928   -0.902384    0.245576
     14          1           0       -2.741595    0.833138    0.278600
     15          1           0        1.588603   -1.427634    0.119570
 ---------------------------------------------------------------------

 The electronic state is 1-A.
 Alpha  occ. eigenvalues --  -19.61845 -10.57815 -10.53585 -10.52976 -10.52569
 Alpha  occ. eigenvalues --   -1.14311  -0.89844  -0.81818  -0.72702  -0.66605
 Alpha  occ. eigenvalues --   -0.58777  -0.54409  -0.51687  -0.51097  -0.46321
 Alpha  occ. eigenvalues --   -0.45236  -0.42725  -0.40851  -0.39592  -0.38024
 Alpha  occ. eigenvalues --   -0.34658
 Alpha virt. eigenvalues --    0.01418   0.02671   0.02852   0.03831   0.05777
 Alpha virt. eigenvalues --    0.05958   0.06637   0.07517   0.08029   0.08728
 Alpha virt. eigenvalues --    0.10088   0.10698   0.12909   0.14519   0.15574

 Mulliken charges:
               1
     1  O   -0.343143
     2  C   -0.339732
     3  C   -0.180670
     4  C   -0.211440
     5  C   -0.523809
     6  H    0.163517
     7  H    0.150362
     8  H    0.155325
     9  H    0.188131
    10  H    0.143258
    11  H    0.142992
    12  H    0.140316
    13  H    0.135519
    14  H    0.137712
    15  H    0.241663
 Sum of Mulliken charges =  -0.00000

 Dipole moment (field-independent basis, Debye):
    X=             -1.4808    Y=              0.1306    Z=              1.0236  Tot=              1.8049
 Quadrupole moment (field-independent basis, Debye-Ang):
   XX=            -39.0122   YY=            -31.1081   ZZ=            -33.8281
   XY=              1.4418   XZ=              1.8717   YZ=             -0.9034

 Normal termination of Gaussian 16 at Mon Mar 11 20:40:56 2019.
