 Gaussian 16, Revision A.03,
 Gaussian 16:  EM64L-G16RevA.03 25-Dec-2016

 ----------------------------------------------
 #p m062x/6-311+g(2df,2p) Opt=(CalcFC,ModRedun)
 ----------------------------------------------

 ----------------------------------------
 Gaussian Input Prepared from Scan Object
 ----------------------------------------
 Symbolic Z-matrix:
 Charge =  0 Multiplicity = 1

 SCF Done:  E(RM062X) =  -233.633236583     A.U. after   11 cycles

  Exact polarizability:   0.000   0.000   0.000   0.000   0.000   0.000
 Approx polarizability:  62.751  -0.711  61.608   0.669   0.331  60.827

 Optimization completed.
    -- Stationary point found.
 SCF Done:  E(RM062X) =  -233.632084592     A.U. after   10 cycles
 SCF Done:  E(RM062X) =  -233.633139069     A.U. after   10 cycles
 SCF Done:  E(RM062X) =  -233.633142647     A.U. after    8 cycles
 Optimization completed.
 SCF Done:  E(RM062X) =  -233.631840238     A.U. after   10 cycles
 SCF Done:  E(RM062X) =  -233.632875827     A.U. after   10 cycles
 SCF Done:  E(RM062X) =  -233.632879612     A.U. after    8 cycles
 SCF Done:  E(RM062X) =  -233.631477435     A.U. after   10 cycles
 SCF Done:  E(RM062X) =  -233.632503853     A.U. after   10 cycles
 SCF Done:  E(RM062X) =  -233.632506769     A.U. after    8 cycles
 SCF Done:  E(RM062X) =  -233.632514640     A.U. after    8 cycles
 SCF Done:  E(RM062X) =  -233.631696262     A.U. after   11 cycles
 SCF Done:  E(RM062X) =  -233.632874950     A.U. after   10 cycles
 SCF Done:  E(RM062X) =  -233.632878143     A.U. after    8 cycles
 SCF Done:  E(RM062X) =  -233.632011359     A.U. after   10 cycles
 SCF Done:  E(RM062X) =  -233.633138469     A.U. after   10 cycles
 SCF Done:  E(RM062X) =  -233.633140786     A.U. after    8 cycles
    -- Stationary point found.
 SCF Done:  E(RM062X) =  -233.632149231     A.U. after   10 cycles
 SCF Done:  E(RM062X) =  -233.633234885     A.U. after   10 cycles
 SCF Done:  E(RM062X) =  -233.633236576     A.U. after    8 cycles
 Optimization completed.
    -- Stationary point found.

                         Standard orientation:
 ---------------------------------------------------------------------
 Center     Atomic      Atomic             Coordinates (Angstroms)
 Number     Number       Type             X           Y           Z
 ---------------------------------------------------------------------
      1          8           0        1.893135   -0.731087   -0.256809
      2          6           0        0.000265    0.703205   -0.225486
      3          6           0       -0.947778   -0.342085    0.351428
      4          6           0        1.433268    0.519224    0.229952
      5          6           0       -2.380527   -0.148149   -0.130076
      6          1           0       -0.913897   -0.290480    1.443307
      7          1           0       -0.590008   -1.334349    0.075173
      8          1           0       -0.331179    1.704379    0.063341
      9          1           0       -0.024858    0.660568   -1.317612
     10          1           0        1.478770    0.544173    1.324970
     11          1           0        2.056661    1.332591   -0.154158
     12          1           0       -2.436470   -0.223188   -1.216922
     13          1           0       -3.049991   -0.897363    0.290869
     14          1           0       -2.758531    0.835663    0.152758
     15          1           0        2.793053   -0.876468    0.037836
 ---------------------------------------------------------------------

 The electronic state is 1-A.
 Alpha  occ. eigenvalues --  -19.61954 -10.57863 -10.52543 -10.52137 -10.51630
 Alpha  occ. eigenvalues --   -1.14353  -0.89185  -0.81399  -0.71335  -0.65698
 Alpha  occ. eigenvalues --   -0.59981  -0.53700  -0.51385  -0.50073  -0.45568
 Alpha  occ. eigenvalues --   -0.44161  -0.42681  -0.39545  -0.38468  -0.37872
 Alpha  occ. eigenvalues --   -0.34703
 Alpha virt. eigenvalues --    0.01274   0.02685   0.03452   0.03992   0.05675
 Alpha virt. eigenvalues --    0.06156   0.06631   0.08094   0.08656   0.09167
 Alpha virt. eigenvalues --    0.10243   0.10964   0.13183   0.15201   0.16368

 Mulliken charges:
               1
     1  O   -0.349528
     2  C   -0.250751
     3  C   -0.202692
     4  C   -0.299146
     5  C   -0.504051
     6  H    0.148901
     7  H    0.181521
     8  H    0.154972
     9  H    0.189174
    10  H    0.138627
    11  H    0.136351
    12  H    0.138349
    13  H    0.134081
    14  H    0.132193
    15  H    0.251998
 Sum of Mulliken charges =  -0.00000

 Dipole moment (field-independent basis, Debye):
    X=              0.8779    Y=              0.9001    Z=              0.8864  Tot=              1.5384
 Quadrupole moment (field-independent basis, Debye-Ang):
   XX=            -28.9055   YY=            -34.0754   ZZ=            -33.9864
   XY=              0.4380   XZ=              1.8047   YZ=             -0.5449

 Normal termination of Gaussian 16 at Tue Apr 23 23:16:36 2019.
