 Gaussian 16, Revision A.03,
 Gaussian 16:  EM64L-G16RevA.03 25-Dec-2016

 ----------------------------------------------
 #p m062x/6-311+g(2df,2p) Opt=(CalcFC,ModRedun)
 ----------------------------------------------

 ----------------------------------------
 Gaussian Input Prepared from Scan Object
 ----------------------------------------
 Symbolic Z-matrix:
 Charge =  0 Multiplicity = 1

 SCF Done:  E(RM062X) =  -233.633236583     A.U. after   11 cycles

  Exact polarizability:   0.000   0.000   0.000   0.000   0.000   0.000
 Approx polarizability:  62.751  -0.711  61.608   0.669   0.331  60.827

 Optimization completed.
    -- Stationary point found.
 SCF Done:  E(RM062X) =  -233.618095326     A.U. after   11 cycles
 SCF Done:  E(RM062X) =  -233.628508104     A.U. after   10 cycles
 SCF Done:  E(RM062X) =  -233.630993037     A.U. after   10 cycles
 SCF Done:  E(RM062X) =  -233.631057914     A.U. after    9 cycles
 SCF Done:  E(RM062X) =  -233.631058361     A.U. after    7 cycles
 SCF Done:  E(RM062X) =  -233.631058382     A.U. after    5 cycles
 Optimization completed.
 SCF Done:  E(RM062X) =  -233.612829418     A.U. after   10 cycles
 SCF Done:  E(RM062X) =  -233.624619530     A.U. after   10 cycles
 SCF Done:  E(RM062X) =  -233.628853766     A.U. after   10 cycles
 SCF Done:  E(RM062X) =  -233.630987794     A.U. after   10 cycles
 SCF Done:  E(RM062X) =  -233.631054679     A.U. after    9 cycles
 SCF Done:  E(RM062X) =  -233.631055946     A.U. after    7 cycles
 SCF Done:  E(RM062X) =  -233.631056016     A.U. after    6 cycles
    -- Stationary point found.
 SCF Done:  E(RM062X) =  -233.620372797     A.U. after   11 cycles
 SCF Done:  E(RM062X) =  -233.630703987     A.U. after   10 cycles
 SCF Done:  E(RM062X) =  -233.633164270     A.U. after   10 cycles
 SCF Done:  E(RM062X) =  -233.633233132     A.U. after    9 cycles
 SCF Done:  E(RM062X) =  -233.633236512     A.U. after    8 cycles
 SCF Done:  E(RM062X) =  -233.633236581     A.U. after    7 cycles
 Optimization completed.
    -- Stationary point found.

                         Standard orientation:
 ---------------------------------------------------------------------
 Center     Atomic      Atomic             Coordinates (Angstroms)
 Number     Number       Type             X           Y           Z
 ---------------------------------------------------------------------
      1          8           0        1.893072   -0.731081   -0.256769
      2          6           0        0.000238    0.703221   -0.225433
      3          6           0       -0.947711   -0.342269    0.351252
      4          6           0        1.433266    0.519272    0.229956
      5          6           0       -2.380512   -0.148063   -0.129995
      6          1           0       -0.913632   -0.291073    1.443123
      7          1           0       -0.590009   -1.334469    0.074658
      8          1           0       -0.331297    1.704286    0.063663
      9          1           0       -0.024879    0.660847   -1.317569
     10          1           0        1.478836    0.544225    1.324968
     11          1           0        2.056643    1.332631   -0.154201
     12          1           0       -2.436606   -0.222541   -1.216873
     13          1           0       -3.049963   -0.897452    0.290660
     14          1           0       -2.758430    0.835628    0.153387
     15          1           0        2.793074   -0.876402    0.037656
 ---------------------------------------------------------------------

 The electronic state is 1-A.
 Alpha  occ. eigenvalues --  -19.61954 -10.57863 -10.52542 -10.52137 -10.51630
 Alpha  occ. eigenvalues --   -1.14353  -0.89185  -0.81399  -0.71335  -0.65699
 Alpha  occ. eigenvalues --   -0.59980  -0.53701  -0.51383  -0.50073  -0.45568
 Alpha  occ. eigenvalues --   -0.44161  -0.42681  -0.39545  -0.38468  -0.37871
 Alpha  occ. eigenvalues --   -0.34703
 Alpha virt. eigenvalues --    0.01274   0.02685   0.03452   0.03992   0.05675
 Alpha virt. eigenvalues --    0.06156   0.06632   0.08094   0.08657   0.09167
 Alpha virt. eigenvalues --    0.10243   0.10964   0.13184   0.15202   0.16368

 Mulliken charges:
               1
     1  O   -0.349523
     2  C   -0.250810
     3  C   -0.202623
     4  C   -0.299138
     5  C   -0.504090
     6  H    0.148915
     7  H    0.181514
     8  H    0.154971
     9  H    0.189170
    10  H    0.138639
    11  H    0.136353
    12  H    0.138343
    13  H    0.134081
    14  H    0.132199
    15  H    0.252000
 Sum of Mulliken charges =  -0.00000

 Dipole moment (field-independent basis, Debye):
    X=              0.8781    Y=              0.9002    Z=              0.8861  Tot=              1.5384
 Quadrupole moment (field-independent basis, Debye-Ang):
   XX=            -28.9047   YY=            -34.0757   ZZ=            -33.9862
   XY=              0.4383   XZ=              1.8037   YZ=             -0.5446

 Normal termination of Gaussian 16 at Thu Mar 28 23:46:23 2019.
