 Gaussian 16, Revision A.03,
 Gaussian 16:  EM64L-G16RevA.03 25-Dec-2016

 ----------------------------------------------
 #p m062x/6-311+g(2df,2p) Opt=(CalcFC,ModRedun)
 ----------------------------------------------

 ----------------------------------------
 Gaussian Input Prepared from Scan Object
 ----------------------------------------
 Symbolic Z-matrix:
 Charge =  0 Multiplicity = 1

 SCF Done:  E(RM062X) =  -233.633236583     A.U. after   11 cycles

  Exact polarizability:   0.000   0.000   0.000   0.000   0.000   0.000
 Approx polarizability:  62.751  -0.711  61.608   0.669   0.331  60.827

 Optimization completed.
    -- Stationary point found.
 SCF Done:  E(RM062X) =  -233.631697364     A.U. after    9 cycles
 SCF Done:  E(RM062X) =  -233.632934497     A.U. after    9 cycles
 SCF Done:  E(RM062X) =  -233.632952525     A.U. after    8 cycles
 Optimization completed.
 SCF Done:  E(RM062X) =  -233.630847836     A.U. after    9 cycles
 SCF Done:  E(RM062X) =  -233.632129290     A.U. after    9 cycles
 SCF Done:  E(RM062X) =  -233.632155800     A.U. after    8 cycles
 SCF Done:  E(RM062X) =  -233.629606539     A.U. after    9 cycles
 SCF Done:  E(RM062X) =  -233.630973487     A.U. after    9 cycles
 SCF Done:  E(RM062X) =  -233.631012532     A.U. after    8 cycles
 SCF Done:  E(RM062X) =  -233.631025073     A.U. after    8 cycles
 SCF Done:  E(RM062X) =  -233.630776324     A.U. after    9 cycles
 SCF Done:  E(RM062X) =  -233.632144652     A.U. after    9 cycles
 SCF Done:  E(RM062X) =  -233.632161087     A.U. after    8 cycles
 SCF Done:  E(RM062X) =  -233.631661417     A.U. after    9 cycles
 SCF Done:  E(RM062X) =  -233.632941011     A.U. after    9 cycles
 SCF Done:  E(RM062X) =  -233.632954237     A.U. after    8 cycles
    -- Stationary point found.
 SCF Done:  E(RM062X) =  -233.631986123     A.U. after    9 cycles
 SCF Done:  E(RM062X) =  -233.633223874     A.U. after    9 cycles
 SCF Done:  E(RM062X) =  -233.633236568     A.U. after    8 cycles
 Optimization completed.
    -- Stationary point found.

                         Standard orientation:
 ---------------------------------------------------------------------
 Center     Atomic      Atomic             Coordinates (Angstroms)
 Number     Number       Type             X           Y           Z
 ---------------------------------------------------------------------
      1          8           0        1.893153   -0.730988   -0.256801
      2          6           0        0.000167    0.703143   -0.225396
      3          6           0       -0.947737   -0.342404    0.351233
      4          6           0        1.433211    0.519291    0.229977
      5          6           0       -2.380468   -0.147984   -0.129972
      6          1           0       -0.913566   -0.291449    1.443121
      7          1           0       -0.590152   -1.334580    0.074388
      8          1           0       -0.331398    1.704208    0.063676
      9          1           0       -0.024975    0.660771   -1.317540
     10          1           0        1.478797    0.544209    1.324986
     11          1           0        2.056495    1.332739   -0.154141
     12          1           0       -2.436174   -0.222171   -1.216894
     13          1           0       -3.050087   -0.897460    0.290302
     14          1           0       -2.758290    0.835668    0.153654
     15          1           0        2.793097   -0.876310    0.037802
 ---------------------------------------------------------------------

 The electronic state is 1-A.
 Alpha  occ. eigenvalues --  -19.61954 -10.57862 -10.52543 -10.52137 -10.51630
 Alpha  occ. eigenvalues --   -1.14353  -0.89186  -0.81400  -0.71334  -0.65699
 Alpha  occ. eigenvalues --   -0.59980  -0.53701  -0.51385  -0.50074  -0.45568
 Alpha  occ. eigenvalues --   -0.44162  -0.42680  -0.39545  -0.38468  -0.37871
 Alpha  occ. eigenvalues --   -0.34703
 Alpha virt. eigenvalues --    0.01274   0.02685   0.03452   0.03992   0.05675
 Alpha virt. eigenvalues --    0.06156   0.06632   0.08093   0.08656   0.09167
 Alpha virt. eigenvalues --    0.10243   0.10964   0.13184   0.15202   0.16368

 Mulliken charges:
               1
     1  O   -0.349512
     2  C   -0.250707
     3  C   -0.202699
     4  C   -0.299189
     5  C   -0.504042
     6  H    0.148897
     7  H    0.181521
     8  H    0.154962
     9  H    0.189175
    10  H    0.138640
    11  H    0.136352
    12  H    0.138329
    13  H    0.134077
    14  H    0.132202
    15  H    0.251995
 Sum of Mulliken charges =  -0.00000

 Dipole moment (field-independent basis, Debye):
    X=              0.8779    Y=              0.9002    Z=              0.8864  Tot=              1.5384
 Quadrupole moment (field-independent basis, Debye-Ang):
   XX=            -28.9061   YY=            -34.0754   ZZ=            -33.9863
   XY=              0.4386   XZ=              1.8045   YZ=             -0.5447

 Normal termination of Gaussian 16 at Tue Apr 23 22:41:31 2019.
