 Gaussian 16, Revision A.03,
 Gaussian 16:  EM64L-G16RevA.03 25-Dec-2016

 ----------------------------------------------
 #p m062x/6-311+g(2df,2p) Opt=(CalcFC,ModRedun)
 ----------------------------------------------

 ----------------------------------------
 Gaussian Input Prepared from Scan Object
 ----------------------------------------
 Symbolic Z-matrix:
 Charge =  0 Multiplicity = 1

 SCF Done:  E(RM062X) =  -233.633236583     A.U. after   11 cycles

  Exact polarizability:   0.000   0.000   0.000   0.000   0.000   0.000
 Approx polarizability:  62.751  -0.711  61.608   0.669   0.331  60.827

 Optimization completed.
    -- Stationary point found.
 SCF Done:  E(RM062X) =  -233.620785191     A.U. after   11 cycles
 SCF Done:  E(RM062X) =  -233.628887158     A.U. after   10 cycles
 SCF Done:  E(RM062X) =  -233.630996984     A.U. after   10 cycles
 SCF Done:  E(RM062X) =  -233.631028023     A.U. after    9 cycles
 SCF Done:  E(RM062X) =  -233.631028324     A.U. after    6 cycles
 Optimization completed.
 SCF Done:  E(RM062X) =  -233.614861821     A.U. after   11 cycles
 SCF Done:  E(RM062X) =  -233.624299569     A.U. after   10 cycles
 SCF Done:  E(RM062X) =  -233.628450799     A.U. after   10 cycles
 SCF Done:  E(RM062X) =  -233.628527984     A.U. after    9 cycles
 SCF Done:  E(RM062X) =  -233.615851196     A.U. after   11 cycles
 SCF Done:  E(RM062X) =  -233.626853647     A.U. after   10 cycles
 SCF Done:  E(RM062X) =  -233.630981179     A.U. after   10 cycles
 SCF Done:  E(RM062X) =  -233.631037798     A.U. after    8 cycles
 SCF Done:  E(RM062X) =  -233.631039662     A.U. after    7 cycles
    -- Stationary point found.
 SCF Done:  E(RM062X) =  -233.622052197     A.U. after   11 cycles
 SCF Done:  E(RM062X) =  -233.631161074     A.U. after   10 cycles
 SCF Done:  E(RM062X) =  -233.633190705     A.U. after   10 cycles
 SCF Done:  E(RM062X) =  -233.633236105     A.U. after    9 cycles
 SCF Done:  E(RM062X) =  -233.633236562     A.U. after    6 cycles
 Optimization completed.
    -- Stationary point found.

                         Standard orientation:
 ---------------------------------------------------------------------
 Center     Atomic      Atomic             Coordinates (Angstroms)
 Number     Number       Type             X           Y           Z
 ---------------------------------------------------------------------
      1          8           0        1.893030   -0.731107   -0.256838
      2          6           0        0.000170    0.703198   -0.225366
      3          6           0       -0.947735   -0.342098    0.351613
      4          6           0        1.433250    0.519262    0.229862
      5          6           0       -2.380397   -0.148183   -0.130196
      6          1           0       -0.913898   -0.290451    1.443490
      7          1           0       -0.589714   -1.334303    0.075464
      8          1           0       -0.331258    1.704346    0.063565
      9          1           0       -0.025111    0.660643   -1.317499
     10          1           0        1.478970    0.544297    1.324862
     11          1           0        2.056554    1.332609   -0.154437
     12          1           0       -2.436077   -0.222802   -1.217076
     13          1           0       -3.049838   -0.897612    0.290394
     14          1           0       -2.758593    0.835516    0.152804
     15          1           0        2.793001   -0.876463    0.037665
 ---------------------------------------------------------------------

 The electronic state is 1-A.
 Alpha  occ. eigenvalues --  -19.61954 -10.57862 -10.52542 -10.52137 -10.51630
 Alpha  occ. eigenvalues --   -1.14353  -0.89185  -0.81399  -0.71335  -0.65699
 Alpha  occ. eigenvalues --   -0.59981  -0.53700  -0.51385  -0.50074  -0.45569
 Alpha  occ. eigenvalues --   -0.44160  -0.42681  -0.39547  -0.38468  -0.37870
 Alpha  occ. eigenvalues --   -0.34703
 Alpha virt. eigenvalues --    0.01274   0.02685   0.03452   0.03992   0.05676
 Alpha virt. eigenvalues --    0.06156   0.06631   0.08094   0.08657   0.09167
 Alpha virt. eigenvalues --    0.10242   0.10964   0.13184   0.15201   0.16367

 Mulliken charges:
               1
     1  O   -0.349541
     2  C   -0.250719
     3  C   -0.202714
     4  C   -0.299201
     5  C   -0.504027
     6  H    0.148908
     7  H    0.181529
     8  H    0.154973
     9  H    0.189167
    10  H    0.138633
    11  H    0.136352
    12  H    0.138349
    13  H    0.134078
    14  H    0.132212
    15  H    0.252003
 Sum of Mulliken charges =  -0.00000

 Dipole moment (field-independent basis, Debye):
    X=              0.8781    Y=              0.9003    Z=              0.8862  Tot=              1.5385
 Quadrupole moment (field-independent basis, Debye-Ang):
   XX=            -28.9052   YY=            -34.0757   ZZ=            -33.9863
   XY=              0.4374   XZ=              1.8041   YZ=             -0.5452

 Normal termination of Gaussian 16 at Thu Mar 28 23:20:48 2019.
