 Gaussian 16, Revision A.03,
 Gaussian 16:  EM64L-G16RevA.03 25-Dec-2016

 ----------------------------------------------
 #p m062x/6-311+g(2df,2p) Opt=(CalcFC,ModRedun)
 ----------------------------------------------

 ----------------------------------------
 Gaussian Input Prepared from Scan Object
 ----------------------------------------
 Symbolic Z-matrix:
 Charge =  0 Multiplicity = 1

 SCF Done:  E(RM062X) =  -233.633030718     A.U. after   12 cycles

  Exact polarizability:   0.000   0.000   0.000   0.000   0.000   0.000
 Approx polarizability:  61.902  -0.079  63.131  -0.357  -0.038  60.972

 Optimization completed.
    -- Stationary point found.
 SCF Done:  E(RM062X) =  -233.631980291     A.U. after   10 cycles
 SCF Done:  E(RM062X) =  -233.632920439     A.U. after   10 cycles
 SCF Done:  E(RM062X) =  -233.632924590     A.U. after    8 cycles
 Optimization completed.
 SCF Done:  E(RM062X) =  -233.631636770     A.U. after   10 cycles
 SCF Done:  E(RM062X) =  -233.632602878     A.U. after   10 cycles
 SCF Done:  E(RM062X) =  -233.632608666     A.U. after    8 cycles
 SCF Done:  E(RM062X) =  -233.631122341     A.U. after   10 cycles
 SCF Done:  E(RM062X) =  -233.632128042     A.U. after    9 cycles
 SCF Done:  E(RM062X) =  -233.632134223     A.U. after    8 cycles
 SCF Done:  E(RM062X) =  -233.631694772     A.U. after   10 cycles
 SCF Done:  E(RM062X) =  -233.632649612     A.U. after   10 cycles
 SCF Done:  E(RM062X) =  -233.632654955     A.U. after    7 cycles
 SCF Done:  E(RM062X) =  -233.631978359     A.U. after   10 cycles
 SCF Done:  E(RM062X) =  -233.632921917     A.U. after   10 cycles
 SCF Done:  E(RM062X) =  -233.632924833     A.U. after    8 cycles
 SCF Done:  E(RM062X) =  -233.632924803     A.U. after    6 cycles
    -- Stationary point found.
 SCF Done:  E(RM062X) =  -233.632096122     A.U. after   10 cycles
 SCF Done:  E(RM062X) =  -233.633025614     A.U. after   10 cycles
 SCF Done:  E(RM062X) =  -233.633030696     A.U. after    8 cycles
 Optimization completed.
    -- Stationary point found.

                         Standard orientation:
 ---------------------------------------------------------------------
 Center     Atomic      Atomic             Coordinates (Angstroms)
 Number     Number       Type             X           Y           Z
 ---------------------------------------------------------------------
      1          8           0        2.029387   -0.668419   -0.266133
      2          6           0        0.006322    0.710932   -0.208725
      3          6           0       -0.941110   -0.370897    0.298963
      4          6           0        1.443996    0.514881    0.245534
      5          6           0       -2.386119   -0.119221   -0.116319
      6          1           0       -0.874542   -0.425825    1.389641
      7          1           0       -0.626268   -1.344633   -0.085664
      8          1           0       -0.338354    1.687298    0.144383
      9          1           0       -0.018176    0.737487   -1.301070
     10          1           0        1.493092    0.524467    1.340806
     11          1           0        2.067637    1.330935   -0.117097
     12          1           0       -2.473439   -0.079742   -1.202692
     13          1           0       -3.051048   -0.902358    0.245533
     14          1           0       -2.741645    0.833136    0.278877
     15          1           0        1.589118   -1.427577    0.119629
 ---------------------------------------------------------------------

 The electronic state is 1-A.
 Alpha  occ. eigenvalues --  -19.61846 -10.57815 -10.53585 -10.52976 -10.52569
 Alpha  occ. eigenvalues --   -1.14312  -0.89844  -0.81819  -0.72702  -0.66605
 Alpha  occ. eigenvalues --   -0.58779  -0.54408  -0.51687  -0.51098  -0.46320
 Alpha  occ. eigenvalues --   -0.45236  -0.42727  -0.40850  -0.39592  -0.38024
 Alpha  occ. eigenvalues --   -0.34658
 Alpha virt. eigenvalues --    0.01418   0.02671   0.02852   0.03831   0.05776
 Alpha virt. eigenvalues --    0.05958   0.06637   0.07517   0.08029   0.08728
 Alpha virt. eigenvalues --    0.10088   0.10698   0.12909   0.14519   0.15574

 Mulliken charges:
               1
     1  O   -0.343119
     2  C   -0.339759
     3  C   -0.180641
     4  C   -0.211433
     5  C   -0.523828
     6  H    0.163495
     7  H    0.150384
     8  H    0.155324
     9  H    0.188127
    10  H    0.143257
    11  H    0.142986
    12  H    0.140312
    13  H    0.135522
    14  H    0.137711
    15  H    0.241661
 Sum of Mulliken charges =  -0.00000

 Dipole moment (field-independent basis, Debye):
    X=             -1.4806    Y=              0.1300    Z=              1.0236  Tot=              1.8047
 Quadrupole moment (field-independent basis, Debye-Ang):
   XX=            -39.0127   YY=            -31.1077   ZZ=            -33.8280
   XY=              1.4399   XZ=              1.8720   YZ=             -0.9032

 Normal termination of Gaussian 16 at Mon Mar 11 21:12:42 2019.
