 Gaussian 16, Revision A.03,
 Gaussian 16:  EM64L-G16RevA.03 25-Dec-2016

 ----------------------------------------------
 #p m062x/6-311+g(2df,2p) Opt=(CalcFC,ModRedun)
 ----------------------------------------------

 ----------------------------------------
 Gaussian Input Prepared from Scan Object
 ----------------------------------------
 Symbolic Z-matrix:
 Charge =  0 Multiplicity = 1

 SCF Done:  E(RM062X) =  -233.633236583     A.U. after   11 cycles

  Exact polarizability:   0.000   0.000   0.000   0.000   0.000   0.000
 Approx polarizability:  62.751  -0.711  61.608   0.669   0.331  60.827

 Optimization completed.
    -- Stationary point found.
 SCF Done:  E(RM062X) =  -233.631606427     A.U. after   10 cycles
 SCF Done:  E(RM062X) =  -233.632938751     A.U. after    9 cycles
 SCF Done:  E(RM062X) =  -233.632960802     A.U. after    8 cycles
 Optimization completed.
 SCF Done:  E(RM062X) =  -233.630775557     A.U. after   10 cycles
 SCF Done:  E(RM062X) =  -233.632145109     A.U. after    9 cycles
 SCF Done:  E(RM062X) =  -233.632173064     A.U. after    8 cycles
 SCF Done:  E(RM062X) =  -233.629526437     A.U. after   10 cycles
 SCF Done:  E(RM062X) =  -233.630997334     A.U. after    9 cycles
 SCF Done:  E(RM062X) =  -233.631043426     A.U. after    8 cycles
 SCF Done:  E(RM062X) =  -233.631084455     A.U. after    9 cycles
 SCF Done:  E(RM062X) =  -233.630670709     A.U. after   10 cycles
 SCF Done:  E(RM062X) =  -233.632171816     A.U. after   10 cycles
 SCF Done:  E(RM062X) =  -233.632189790     A.U. after    8 cycles
 SCF Done:  E(RM062X) =  -233.631544751     A.U. after   10 cycles
 SCF Done:  E(RM062X) =  -233.632944730     A.U. after    9 cycles
 SCF Done:  E(RM062X) =  -233.632959740     A.U. after    8 cycles
    -- Stationary point found.
 SCF Done:  E(RM062X) =  -233.631873110     A.U. after   10 cycles
 SCF Done:  E(RM062X) =  -233.633219201     A.U. after    9 cycles
 SCF Done:  E(RM062X) =  -233.633236401     A.U. after    8 cycles
 Optimization completed.
    -- Stationary point found.

                         Standard orientation:
 ---------------------------------------------------------------------
 Center     Atomic      Atomic             Coordinates (Angstroms)
 Number     Number       Type             X           Y           Z
 ---------------------------------------------------------------------
      1          8           0        1.893072   -0.730906   -0.256944
      2          6           0        0.000136    0.703165   -0.225377
      3          6           0       -0.947580   -0.342600    0.351193
      4          6           0        1.433117    0.519275    0.230121
      5          6           0       -2.380344   -0.147936   -0.129988
      6          1           0       -0.913180   -0.290994    1.443017
      7          1           0       -0.590491   -1.335143    0.074859
      8          1           0       -0.331608    1.704313    0.063316
      9          1           0       -0.024802    0.660912   -1.317545
     10          1           0        1.478718    0.543899    1.325122
     11          1           0        2.056368    1.332829   -0.153818
     12          1           0       -2.436596   -0.222979   -1.216802
     13          1           0       -3.050068   -0.896767    0.291223
     14          1           0       -2.757901    0.836044    0.152880
     15          1           0        2.793018   -0.876292    0.037616
 ---------------------------------------------------------------------

 The electronic state is 1-A.
 Alpha  occ. eigenvalues --  -19.61953 -10.57862 -10.52543 -10.52138 -10.51629
 Alpha  occ. eigenvalues --   -1.14352  -0.89185  -0.81399  -0.71333  -0.65701
 Alpha  occ. eigenvalues --   -0.59979  -0.53701  -0.51382  -0.50073  -0.45569
 Alpha  occ. eigenvalues --   -0.44160  -0.42680  -0.39551  -0.38463  -0.37871
 Alpha  occ. eigenvalues --   -0.34703
 Alpha virt. eigenvalues --    0.01274   0.02685   0.03452   0.03992   0.05675
 Alpha virt. eigenvalues --    0.06156   0.06632   0.08093   0.08657   0.09167
 Alpha virt. eigenvalues --    0.10242   0.10964   0.13184   0.15203   0.16368

 Mulliken charges:
               1
     1  O   -0.349489
     2  C   -0.250736
     3  C   -0.202507
     4  C   -0.299235
     5  C   -0.504199
     6  H    0.148920
     7  H    0.181462
     8  H    0.154990
     9  H    0.189175
    10  H    0.138637
    11  H    0.136346
    12  H    0.138389
    13  H    0.134073
    14  H    0.132179
    15  H    0.251996
 Sum of Mulliken charges =  -0.00000

 Dipole moment (field-independent basis, Debye):
    X=              0.8777    Y=              0.9002    Z=              0.8866  Tot=              1.5384
 Quadrupole moment (field-independent basis, Debye-Ang):
   XX=            -28.9074   YY=            -34.0732   ZZ=            -33.9871
   XY=              0.4376   XZ=              1.8054   YZ=             -0.5455

 Normal termination of Gaussian 16 at Tue Apr 23 22:49:14 2019.
