 Gaussian 16, Revision A.03,
 Gaussian 16:  EM64L-G16RevA.03 25-Dec-2016

 ----------------------------------------------------------------------
 #p m062x/6-311+g(2df,2p) opt=(calcfc,verytight,gdiis,maxcycles=900) fr
 eq iop(7/33=1,2/16=3)
 ----------------------------------------------------------------------

 ------------------------------
 Gaussian input prepared by ASE
 ------------------------------
 Symbolic Z-matrix:
 Charge =  0 Multiplicity = 1

 SCF Done:  E(RM062X) =  -233.633030718     A.U. after   12 cycles
 Optimization completed.
    -- Stationary point found.
 Normal termination of Gaussian 16 at Mon Mar 11 15:43:58 2019.

 ----------------------------------------------------------------------
 #P Geom=AllCheck Guess=TCheck SCRF=Check Test GenChk RM062X/6-311+G(2d
 f,2p) Freq
 ----------------------------------------------------------------------

 Structure from the checkpoint file:  "/scratch/underkoffler.c/gaussian_scratch/Gau-16313.chk"
 ------------------------------
 Gaussian input prepared by ASE
 ------------------------------
 Charge =  0 Multiplicity = 1

                         Standard orientation:
 ---------------------------------------------------------------------
 Center     Atomic      Atomic             Coordinates (Angstroms)
 Number     Number       Type             X           Y           Z
 ---------------------------------------------------------------------
      1          8           0        2.029091   -0.668615   -0.266186
      2          6           0        0.006368    0.711076   -0.208738
      3          6           0       -0.941032   -0.370711    0.299164
      4          6           0        1.444046    0.514888    0.245481
      5          6           0       -2.386005   -0.119322   -0.116416
      6          1           0       -0.874597   -0.425250    1.389864
      7          1           0       -0.625976   -1.344546   -0.085049
      8          1           0       -0.338200    1.687479    0.144360
      9          1           0       -0.018170    0.737585   -1.301083
     10          1           0        1.493255    0.524401    1.340752
     11          1           0        2.067849    1.330810   -0.117142
     12          1           0       -2.473171   -0.080187   -1.202815
     13          1           0       -3.050901   -0.902422    0.245582
     14          1           0       -2.741696    0.833114    0.278441
     15          1           0        1.588620   -1.427652    0.119632
 ---------------------------------------------------------------------

 SCF Done:  E(RM062X) =  -233.633030718     A.U. after    1 cycles

 The electronic state is 1-A.
 Alpha  occ. eigenvalues --  -19.61845 -10.57815 -10.53585 -10.52976 -10.52569
 Alpha  occ. eigenvalues --   -1.14311  -0.89843  -0.81818  -0.72702  -0.66605
 Alpha  occ. eigenvalues --   -0.58777  -0.54409  -0.51687  -0.51097  -0.46321
 Alpha  occ. eigenvalues --   -0.45236  -0.42725  -0.40851  -0.39592  -0.38024
 Alpha  occ. eigenvalues --   -0.34658
 Alpha virt. eigenvalues --    0.01418   0.02671   0.02852   0.03831   0.05777
 Alpha virt. eigenvalues --    0.05958   0.06637   0.07517   0.08029   0.08728
 Alpha virt. eigenvalues --    0.10088   0.10698   0.12909   0.14519   0.15574

 Mulliken charges:
               1
     1  O   -0.343142
     2  C   -0.339726
     3  C   -0.180683
     4  C   -0.211436
     5  C   -0.523795
     6  H    0.163512
     7  H    0.150359
     8  H    0.155327
     9  H    0.188127
    10  H    0.143256
    11  H    0.142993
    12  H    0.140316
    13  H    0.135519
    14  H    0.137712
    15  H    0.241661
 Sum of Mulliken charges =  -0.00000

 Dipole moment (field-independent basis, Debye):
    X=             -1.4807    Y=              0.1306    Z=              1.0237  Tot=              1.8048
 Quadrupole moment (field-independent basis, Debye-Ang):
   XX=            -39.0118   YY=            -31.1082   ZZ=            -33.8281
   XY=              1.4417   XZ=              1.8719   YZ=             -0.9036

  Exact polarizability:  62.197   0.779  52.692   0.763  -0.384  49.371
 Approx polarizability:  61.902  -0.079  63.131  -0.357  -0.038  60.972

                      1                      2                      3
                      A                      A                      A
 Frequencies --     85.6027               145.0750               238.2723
 Red. masses --      2.0121                 2.7494                 1.3877
 Frc consts  --      0.0087                 0.0341                 0.0464
 IR Inten    --      0.5956                 7.8105                24.7162

                      4                      5                      6
                      A                      A                      A
 Frequencies --    255.6864               282.4149               348.7670
 Red. masses --      1.1235                 1.4034                 2.9553
 Frc consts  --      0.0433                 0.0660                 0.2118
 IR Inten    --     32.3673                71.9345                 5.2190

                      7                      8                      9
                      A                      A                      A
 Frequencies --    518.4770               744.9304               836.6182
 Red. masses --      2.3985                 1.1404                 1.6773
 Frc consts  --      0.3799                 0.3729                 0.6917
 IR Inten    --      2.8236                 3.9018                 3.1054

                     10                     11                     12
                      A                      A                      A
 Frequencies --    865.0547               960.4564               981.5178
 Red. masses --      1.5643                 1.2762                 1.7500
 Frc consts  --      0.6897                 0.6936                 0.9933
 IR Inten    --      3.3913                11.6759                 5.4657

                     13                     14                     15
                      A                      A                      A
 Frequencies --   1065.4708              1110.9604              1122.9907
 Red. masses --      2.7143                 1.5410                 2.5902
 Frc consts  --      1.8155                 1.1206                 1.9246
 IR Inten    --      7.9895                72.6442                29.7696

                     16                     17                     18
                      A                      A                      A
 Frequencies --   1161.1230              1228.1899              1274.7346
 Red. masses --      2.0077                 1.4659                 1.3212
 Frc consts  --      1.5948                 1.3028                 1.2649
 IR Inten    --     11.6068                10.4938                 4.4958

                     19                     20                     21
                      A                      A                      A
 Frequencies --   1325.1178              1334.6865              1386.5643
 Red. masses --      1.2886                 1.1678                 1.1697
 Frc consts  --      1.3332                 1.2257                 1.3249
 IR Inten    --      1.3090                 0.9855                 5.4810

                     22                     23                     24
                      A                      A                      A
 Frequencies --   1405.8447              1416.0481              1423.1223
 Red. masses --      1.6658                 1.2486                 1.2937
 Frc consts  --      1.9397                 1.4751                 1.5437
 IR Inten    --      1.6931                 1.1670                37.4559

                     25                     26                     27
                      A                      A                      A
 Frequencies --   1479.6953              1497.0334              1506.3979
 Red. masses --      1.0916                 1.0602                 1.0392
 Frc consts  --      1.4082                 1.4000                 1.3894
 IR Inten    --      5.1448                 1.2196                 8.6490

                     28                     29                     30
                      A                      A                      A
 Frequencies --   1512.0384              1516.1933              3020.2058
 Red. masses --      1.0801                 1.0868                 1.0709
 Frc consts  --      1.4550                 1.4720                 5.7556
 IR Inten    --      5.9661                 2.7912                43.4942

                     31                     32                     33
                      A                      A                      A
 Frequencies --   3037.6036              3048.6775              3060.7257
 Red. masses --      1.0592                 1.0608                 1.0363
 Frc consts  --      5.7582                 5.8091                 5.7200
 IR Inten    --     10.1061                31.7106                28.0895

                     34                     35                     36
                      A                      A                      A
 Frequencies --   3068.5925              3095.9406              3114.5651
 Red. masses --      1.1000                 1.1031                 1.0946
 Frc consts  --      6.1026                 6.2297                 6.2562
 IR Inten    --      4.4021                34.6222                30.2206

                     37                     38                     39
                      A                      A                      A
 Frequencies --   3127.4856              3135.8183              3908.0904
 Red. masses --      1.1028                 1.1020                 1.0663
 Frc consts  --      6.3551                 6.3844                 9.5949
 IR Inten    --     38.0997                26.2768                30.8368

 - Thermochemistry -
 -------------------
 Temperature   298.150 Kelvin.  Pressure   1.00000 Atm.
 Atom     1 has atomic number  8 and mass  15.99491

 Molecular mass:    74.07317 amu.
 Principal axes and moments of inertia in atomic units:
                           1         2         3
     Eigenvalues --   142.62432 763.25486 829.61969
           X            0.99983   0.01468   0.01071
           Y           -0.01429   0.99926  -0.03582
           Z           -0.01123   0.03566   0.99930
 This molecule is an asymmetric top.
 Rotational symmetry number  1.
 Rotational temperatures (Kelvin)      0.60729     0.11348     0.10440
 Rotational constants (GHZ):          12.65381     2.36453     2.17538
 Zero-point vibrational energy     362748.4 (Joules/Mol)
                                   86.69894 (Kcal/Mol)
 Warning -- explicit consideration of   7 degrees of freedom as
           vibrations may cause significant error
 Vibrational temperatures:    123.16   208.73   342.82   367.88   406.33
          (Kelvin)            501.80   745.97  1071.79  1203.71  1244.62
                             1381.88  1412.19  1532.97  1598.42  1615.73
                             1670.60  1767.09  1834.06  1906.55  1920.32
                             1994.96  2022.70  2037.38  2047.56  2128.95
                             2153.90  2167.37  2175.49  2181.46  4345.40
                             4370.43  4386.37  4403.70  4415.02  4454.37
                             4481.16  4499.75  4511.74  5622.87

 Zero-point correction=                           0.138164 (Hartree/Particle)
 Thermal correction to Energy=                    0.144912
 Thermal correction to Enthalpy=                  0.145856
 Thermal correction to Gibbs Free Energy=         0.108121
 Sum of electronic and zero-point Energies=           -233.494867
 Sum of electronic and thermal Energies=              -233.488119
 Sum of electronic and thermal Enthalpies=            -233.487175
 Sum of electronic and thermal Free Energies=         -233.524910

                     E (Thermal)             CV                S
                      KCal/Mol        Cal/Mol-Kelvin    Cal/Mol-Kelvin
 Total                   90.934             23.041             79.420
 Electronic               0.000              0.000              0.000
 Translational            0.889              2.981             38.823
 Rotational               0.889              2.981             26.004
 Vibrational             89.156             17.079             14.593
 Vibration     1          0.601              1.959              3.758
 Vibration     2          0.616              1.908              2.736
 Vibration     3          0.656              1.782              1.816
 Vibration     4          0.666              1.753              1.691
 Vibration     5          0.681              1.706              1.519
 Vibration     6          0.726              1.578              1.172
 Vibration     7          0.873              1.209              0.614

 Optimization completed.
    -- Stationary point found.
 Normal termination of Gaussian 16 at Mon Mar 11 15:49:53 2019.
