 Gaussian 16, Revision A.03,
 Gaussian 16:  EM64L-G16RevA.03 25-Dec-2016

 ----------------------------------------------
 #p m062x/6-311+g(2df,2p) Opt=(CalcFC,ModRedun)
 ----------------------------------------------

 ----------------------------------------
 Gaussian Input Prepared from Scan Object
 ----------------------------------------
 Symbolic Z-matrix:
 Charge =  0 Multiplicity = 1

 SCF Done:  E(RM062X) =  -233.633236583     A.U. after   11 cycles

  Exact polarizability:   0.000   0.000   0.000   0.000   0.000   0.000
 Approx polarizability:  62.751  -0.711  61.608   0.669   0.331  60.827

 Optimization completed.
    -- Stationary point found.
 SCF Done:  E(RM062X) =  -233.631754635     A.U. after    9 cycles
 SCF Done:  E(RM062X) =  -233.632937455     A.U. after    9 cycles
 SCF Done:  E(RM062X) =  -233.632956485     A.U. after    8 cycles
 Optimization completed.
 SCF Done:  E(RM062X) =  -233.630938603     A.U. after    9 cycles
 SCF Done:  E(RM062X) =  -233.632144686     A.U. after    9 cycles
 SCF Done:  E(RM062X) =  -233.632168819     A.U. after    8 cycles
 SCF Done:  E(RM062X) =  -233.632168892     A.U. after    6 cycles
 SCF Done:  E(RM062X) =  -233.629728436     A.U. after    9 cycles
 SCF Done:  E(RM062X) =  -233.631001522     A.U. after    9 cycles
 SCF Done:  E(RM062X) =  -233.632160858     A.U. after    8 cycles
 SCF Done:  E(RM062X) =  -233.632160940     A.U. after    6 cycles
 SCF Done:  E(RM062X) =  -233.631677900     A.U. after    9 cycles
 SCF Done:  E(RM062X) =  -233.632941847     A.U. after    9 cycles
 SCF Done:  E(RM062X) =  -233.632954578     A.U. after    8 cycles
 SCF Done:  E(RM062X) =  -233.632954608     A.U. after    6 cycles
    -- Stationary point found.
 SCF Done:  E(RM062X) =  -233.632020636     A.U. after    9 cycles
 SCF Done:  E(RM062X) =  -233.633220944     A.U. after    9 cycles
 SCF Done:  E(RM062X) =  -233.633236518     A.U. after    8 cycles
 SCF Done:  E(RM062X) =  -233.633236582     A.U. after    6 cycles
 Optimization completed.
    -- Stationary point found.

                         Standard orientation:
 ---------------------------------------------------------------------
 Center     Atomic      Atomic             Coordinates (Angstroms)
 Number     Number       Type             X           Y           Z
 ---------------------------------------------------------------------
      1          8           0        1.893114   -0.731071   -0.256783
      2          6           0        0.000245    0.703222   -0.225421
      3          6           0       -0.947729   -0.342263    0.351224
      4          6           0        1.433274    0.519264    0.229956
      5          6           0       -2.380544   -0.148059   -0.129977
      6          1           0       -0.913623   -0.291137    1.443112
      7          1           0       -0.590049   -1.334440    0.074551
      8          1           0       -0.331255    1.704302    0.063669
      9          1           0       -0.024898    0.660883   -1.317563
     10          1           0        1.478870    0.544216    1.324964
     11          1           0        2.056623    1.332640   -0.154209
     12          1           0       -2.436646   -0.222462   -1.216862
     13          1           0       -3.049922   -0.897541    0.290625
     14          1           0       -2.758544    0.835574    0.153486
     15          1           0        2.793054   -0.876447    0.037806
 ---------------------------------------------------------------------

 The electronic state is 1-A.
 Alpha  occ. eigenvalues --  -19.61954 -10.57863 -10.52543 -10.52137 -10.51630
 Alpha  occ. eigenvalues --   -1.14353  -0.89185  -0.81399  -0.71335  -0.65698
 Alpha  occ. eigenvalues --   -0.59980  -0.53701  -0.51384  -0.50073  -0.45568
 Alpha  occ. eigenvalues --   -0.44162  -0.42681  -0.39545  -0.38468  -0.37871
 Alpha  occ. eigenvalues --   -0.34703
 Alpha virt. eigenvalues --    0.01274   0.02685   0.03452   0.03992   0.05675
 Alpha virt. eigenvalues --    0.06156   0.06632   0.08094   0.08657   0.09167
 Alpha virt. eigenvalues --    0.10243   0.10964   0.13183   0.15202   0.16368

 Mulliken charges:
               1
     1  O   -0.349522
     2  C   -0.250798
     3  C   -0.202614
     4  C   -0.299142
     5  C   -0.504102
     6  H    0.148904
     7  H    0.181521
     8  H    0.154969
     9  H    0.189170
    10  H    0.138639
    11  H    0.136354
    12  H    0.138339
    13  H    0.134081
    14  H    0.132203
    15  H    0.251998
 Sum of Mulliken charges =  -0.00000

 Dipole moment (field-independent basis, Debye):
    X=              0.8779    Y=              0.9001    Z=              0.8864  Tot=              1.5384
 Quadrupole moment (field-independent basis, Debye-Ang):
   XX=            -28.9053   YY=            -34.0754   ZZ=            -33.9862
   XY=              0.4381   XZ=              1.8047   YZ=             -0.5450

 Normal termination of Gaussian 16 at Tue Apr 23 22:44:52 2019.
