 Gaussian 16, Revision A.03,
 Gaussian 16:  EM64L-G16RevA.03 25-Dec-2016

 ----------------------------------------------------------------------
 #p m062x/6-311+g(2df,2p) opt=(calcfc,verytight,gdiis,maxcycles=900) fr
 eq iop(7/33=1,2/16=3)
 ----------------------------------------------------------------------

 ------------------------------
 Gaussian input prepared by ASE
 ------------------------------
 Symbolic Z-matrix:
 Charge =  0 Multiplicity = 1

 SCF Done:  E(RM062X) =  -233.633215091     A.U. after   11 cycles
 SCF Done:  E(RM062X) =  -233.633236484     A.U. after    9 cycles
 SCF Done:  E(RM062X) =  -233.633236581     A.U. after    7 cycles
 SCF Done:  E(RM062X) =  -233.633236583     A.U. after    5 cycles
 Optimization completed.
    -- Stationary point found.
 Normal termination of Gaussian 16 at Tue Mar 12 23:21:35 2019.

 ----------------------------------------------------------------------
 #P Geom=AllCheck Guess=TCheck SCRF=Check Test GenChk RM062X/6-311+G(2d
 f,2p) Freq
 ----------------------------------------------------------------------

 Structure from the checkpoint file:  "/scratch/underkoffler.c/gaussian_scratch/Gau-36571.chk"
 ------------------------------
 Gaussian input prepared by ASE
 ------------------------------
 Charge =  0 Multiplicity = 1

                         Standard orientation:
 ---------------------------------------------------------------------
 Center     Atomic      Atomic             Coordinates (Angstroms)
 Number     Number       Type             X           Y           Z
 ---------------------------------------------------------------------
      1          8           0        1.893113   -0.731068   -0.256784
      2          6           0        0.000245    0.703219   -0.225419
      3          6           0       -0.947728   -0.342276    0.351218
      4          6           0        1.433275    0.519266    0.229957
      5          6           0       -2.380543   -0.148055   -0.129976
      6          1           0       -0.913626   -0.291159    1.443106
      7          1           0       -0.590047   -1.334449    0.074536
      8          1           0       -0.331264    1.704295    0.063677
      9          1           0       -0.024899    0.660888   -1.317561
     10          1           0        1.478871    0.544217    1.324966
     11          1           0        2.056623    1.332643   -0.154207
     12          1           0       -2.436655   -0.222441   -1.216861
     13          1           0       -3.049949   -0.897517    0.290621
     14          1           0       -2.758504    0.835588    0.153505
     15          1           0        2.793054   -0.876444    0.037804
 ---------------------------------------------------------------------

 SCF Done:  E(RM062X) =  -233.633236583     A.U. after    1 cycles

 The electronic state is 1-A.
 Alpha  occ. eigenvalues --  -19.61954 -10.57863 -10.52543 -10.52137 -10.51630
 Alpha  occ. eigenvalues --   -1.14353  -0.89185  -0.81399  -0.71335  -0.65698
 Alpha  occ. eigenvalues --   -0.59980  -0.53701  -0.51384  -0.50073  -0.45568
 Alpha  occ. eigenvalues --   -0.44161  -0.42681  -0.39545  -0.38468  -0.37871
 Alpha  occ. eigenvalues --   -0.34703
 Alpha virt. eigenvalues --    0.01274   0.02685   0.03452   0.03992   0.05675
 Alpha virt. eigenvalues --    0.06156   0.06632   0.08094   0.08657   0.09167
 Alpha virt. eigenvalues --    0.10243   0.10964   0.13183   0.15202   0.16368

 Mulliken charges:
               1
     1  O   -0.349522
     2  C   -0.250792
     3  C   -0.202621
     4  C   -0.299146
     5  C   -0.504098
     6  H    0.148906
     7  H    0.181520
     8  H    0.154969
     9  H    0.189170
    10  H    0.138639
    11  H    0.136354
    12  H    0.138339
    13  H    0.134081
    14  H    0.132202
    15  H    0.251998
 Sum of Mulliken charges =  -0.00000

 Dipole moment (field-independent basis, Debye):
    X=              0.8779    Y=              0.9001    Z=              0.8864  Tot=              1.5384
 Quadrupole moment (field-independent basis, Debye-Ang):
   XX=            -28.9053   YY=            -34.0755   ZZ=            -33.9861
   XY=              0.4382   XZ=              1.8047   YZ=             -0.5449

  Exact polarizability:  63.430   0.352  51.720   1.048  -0.409  49.520
 Approx polarizability:  62.751  -0.711  61.608   0.669   0.331  60.827

                      1                      2                      3
                      A                      A                      A
 Frequencies --     85.0920               143.8599               228.2093
 Red. masses --      2.0227                 2.9135                 1.2666
 Frc consts  --      0.0086                 0.0355                 0.0389
 IR Inten    --      0.6999                 9.0621                82.5419

                      4                      5                      6
                      A                      A                      A
 Frequencies --    242.4461               277.5633               350.8039
 Red. masses --      1.1450                 1.5509                 2.7851
 Frc consts  --      0.0397                 0.0704                 0.2019
 IR Inten    --      1.6875                31.9594                 2.3181

                      7                      8                      9
                      A                      A                      A
 Frequencies --    514.5328               745.6493               846.7789
 Red. masses --      2.3869                 1.1361                 1.6193
 Frc consts  --      0.3723                 0.3722                 0.6841
 IR Inten    --     10.1343                 1.0389                 3.5214

                     10                     11                     12
                      A                      A                      A
 Frequencies --    864.6947               978.4065               986.2788
 Red. masses --      1.6126                 1.4027                 1.6133
 Frc consts  --      0.7104                 0.7911                 0.9246
 IR Inten    --      4.2846                 1.7607                 4.1690

                     13                     14                     15
                      A                      A                      A
 Frequencies --   1062.0602              1098.7652              1145.4784
 Red. masses --      2.6704                 1.8462                 2.2934
 Frc consts  --      1.7747                 1.3132                 1.7730
 IR Inten    --     13.0226                49.8791                22.4110

                     16                     17                     18
                      A                      A                      A
 Frequencies --   1167.7683              1236.0799              1264.2494
 Red. masses --      1.9260                 1.3554                 1.2058
 Frc consts  --      1.5475                 1.2201                 1.1355
 IR Inten    --      4.5825                28.2717                 6.0791

                     19                     20                     21
                      A                      A                      A
 Frequencies --   1303.9273              1332.5596              1339.0056
 Red. masses --      1.2504                 1.1968                 1.1561
 Frc consts  --      1.2526                 1.2521                 1.2213
 IR Inten    --     24.1249                 4.4860                 3.3007

                     22                     23                     24
                      A                      A                      A
 Frequencies --   1409.5039              1415.2559              1454.1934
 Red. masses --      1.6287                 1.2520                 1.4835
 Frc consts  --      1.9065                 1.4775                 1.8483
 IR Inten    --      0.6595                 2.9591                 5.8228

                     25                     26                     27
                      A                      A                      A
 Frequencies --   1479.9988              1499.0401              1505.2561
 Red. masses --      1.0957                 1.0514                 1.0394
 Frc consts  --      1.4141                 1.3921                 1.3875
 IR Inten    --      3.6626                 1.3876                 7.8743

                     28                     29                     30
                      A                      A                      A
 Frequencies --   1514.0703              1528.8338              3014.5418
 Red. masses --      1.0875                 1.0881                 1.0585
 Frc consts  --      1.4688                 1.4985                 5.6675
 IR Inten    --      7.2908                 4.5413                51.3167

                     31                     32                     33
                      A                      A                      A
 Frequencies --   3043.3470              3050.8360              3057.2072
 Red. masses --      1.0743                 1.0747                 1.0461
 Frc consts  --      5.8623                 5.8934                 5.7606
 IR Inten    --      8.6670                 6.8676                29.7488

                     34                     35                     36
                      A                      A                      A
 Frequencies --   3060.4691              3087.6111              3105.9824
 Red. masses --      1.0722                 1.0972                 1.1002
 Frc consts  --      5.9171                 6.1627                 6.2536
 IR Inten    --     69.8885                19.7698                 3.2670

                     37                     38                     39
                      A                      A                      A
 Frequencies --   3127.5010              3133.5170              3916.6140
 Red. masses --      1.1024                 1.1012                 1.0667
 Frc consts  --      6.3530                 6.3707                 9.6410
 IR Inten    --     49.4853                29.0304                47.5259

 - Thermochemistry -
 -------------------
 Temperature   298.150 Kelvin.  Pressure   1.00000 Atm.
 Atom     1 has atomic number  8 and mass  15.99491

 Molecular mass:    74.07317 amu.
 Principal axes and moments of inertia in atomic units:
                           1         2         3
     Eigenvalues --   143.58477 751.61025 815.29644
           X            0.99984   0.01476   0.01017
           Y           -0.01440   0.99930  -0.03454
           Z           -0.01068   0.03439   0.99935
 This molecule is an asymmetric top.
 Rotational symmetry number  1.
 Rotational temperatures (Kelvin)      0.60322     0.11524     0.10624
 Rotational constants (GHZ):          12.56917     2.40117     2.21360
 Zero-point vibrational energy     362576.1 (Joules/Mol)
                                   86.65776 (Kcal/Mol)
 Warning -- explicit consideration of   7 degrees of freedom as
           vibrations may cause significant error
 Vibrational temperatures:    122.43   206.98   328.34   348.83   399.35
          (Kelvin)            504.73   740.30  1072.82  1218.33  1244.10
                             1407.71  1419.04  1528.07  1580.88  1648.09
                             1680.16  1778.44  1818.97  1876.06  1917.26
                             1926.53  2027.96  2036.24  2092.26  2129.39
                             2156.78  2165.73  2178.41  2199.65  4337.25
                             4378.70  4389.47  4398.64  4403.33  4442.38
                             4468.82  4499.78  4508.43  5635.13

 Zero-point correction=                           0.138098 (Hartree/Particle)
 Thermal correction to Energy=                    0.144884
 Thermal correction to Enthalpy=                  0.145828
 Thermal correction to Gibbs Free Energy=         0.108004
 Sum of electronic and zero-point Energies=           -233.495139
 Sum of electronic and thermal Energies=              -233.488353
 Sum of electronic and thermal Enthalpies=            -233.487408
 Sum of electronic and thermal Free Energies=         -233.525233

                     E (Thermal)             CV                S
                      KCal/Mol        Cal/Mol-Kelvin    Cal/Mol-Kelvin
 Total                   90.916             23.059             79.608
 Electronic               0.000              0.000              0.000
 Translational            0.889              2.981             38.823
 Rotational               0.889              2.981             25.979
 Vibrational             89.139             17.097             14.806
 Vibration     1          0.601              1.960              3.770
 Vibration     2          0.616              1.909              2.752
 Vibration     3          0.651              1.798              1.893
 Vibration     4          0.659              1.775              1.785
 Vibration     5          0.679              1.715              1.549
 Vibration     6          0.728              1.574              1.163
 Vibration     7          0.870              1.218              0.623

                           ! Non-Optimized Parameters !
 Normal termination of Gaussian 16 at Tue Mar 12 23:28:10 2019.
