 Gaussian 16, Revision A.03,
 Gaussian 16:  EM64L-G16RevA.03 25-Dec-2016

 ----------------------------------------------
 #p m062x/6-311+g(2df,2p) Opt=(CalcFC,ModRedun)
 ----------------------------------------------

 ----------------------------------------
 Gaussian Input Prepared from Scan Object
 ----------------------------------------
 Symbolic Z-matrix:
 Charge =  0 Multiplicity = 2

 SCF Done:  E(UM062X) =  -419.170824685     A.U. after   18 cycles

  Exact polarizability:   0.000   0.000   0.000   0.000   0.000   0.000
 Approx polarizability:  68.566  -3.463  58.176  -8.496   2.211  66.901

 Optimization completed.
    -- Stationary point found.
 SCF Done:  E(UM062X) =  -419.170748852     A.U. after   15 cycles
 SCF Done:  E(UM062X) =  -419.170765686     A.U. after   15 cycles
 SCF Done:  E(UM062X) =  -419.170765702     A.U. after   10 cycles
 Optimization completed.
 SCF Done:  E(UM062X) =  -419.170605737     A.U. after   15 cycles
 SCF Done:  E(UM062X) =  -419.170621279     A.U. after   15 cycles
 SCF Done:  E(UM062X) =  -419.170418607     A.U. after   15 cycles
 SCF Done:  E(UM062X) =  -419.170431185     A.U. after   14 cycles
 SCF Done:  E(UM062X) =  -419.170217218     A.U. after   15 cycles
 SCF Done:  E(UM062X) =  -419.170225958     A.U. after   14 cycles
 SCF Done:  E(UM062X) =  -419.169193770     A.U. after   15 cycles
 SCF Done:  E(UM062X) =  -419.169207202     A.U. after   15 cycles
 SCF Done:  E(UM062X) =  -419.169974557     A.U. after   14 cycles
 SCF Done:  E(UM062X) =  -419.169986365     A.U. after   10 cycles
 SCF Done:  E(UM062X) =  -419.170476818     A.U. after   14 cycles
 SCF Done:  E(UM062X) =  -419.170488632     A.U. after   15 cycles
 SCF Done:  E(UM062X) =  -419.170737033     A.U. after   14 cycles
 SCF Done:  E(UM062X) =  -419.170750363     A.U. after   15 cycles
    -- Stationary point found.
 SCF Done:  E(UM062X) =  -419.170808890     A.U. after   14 cycles
 SCF Done:  E(UM062X) =  -419.170824669     A.U. after   15 cycles
 Optimization completed.
    -- Stationary point found.

                         Standard orientation:
 ---------------------------------------------------------------------
 Center     Atomic      Atomic             Coordinates (Angstroms)
 Number     Number       Type             X           Y           Z
 ---------------------------------------------------------------------
      1          8           0       -1.732807   -0.153047   -0.675666
      2          8           0        1.645062   -0.404818    0.711934
      3          8           0       -2.409453   -0.027195    0.568946
      4          8           0        2.317677   -0.660257   -0.366401
      5          6           0        0.385468    0.257989    0.428102
      6          6           0       -0.461680   -0.695808   -0.407086
      7          6           0        0.611719    1.596156   -0.234818
      8          1           0       -0.055494    0.372815    1.416607
      9          1           0       -0.550128   -1.663936    0.091992
     10          1           0       -0.007480   -0.831197   -1.388884
     11          1           0        1.108890    1.461851   -1.194032
     12          1           0       -0.351488    2.075238   -0.400536
     13          1           0        1.222470    2.238056    0.397129
     14          1           0       -3.143637   -0.640315    0.450024
 ---------------------------------------------------------------------

 The electronic state is 2-A.
 Alpha  occ. eigenvalues --  -19.75021 -19.70429 -19.69800 -19.69765 -10.61147
 Alpha  occ. eigenvalues --  -10.60531 -10.53865  -1.34607  -1.28426  -1.05428
 Alpha  occ. eigenvalues --   -1.00717  -0.87031  -0.79553  -0.70108  -0.64187
 Alpha  occ. eigenvalues --   -0.62037  -0.60569  -0.59535  -0.56846  -0.55356
 Alpha  occ. eigenvalues --   -0.51456  -0.48498  -0.46642  -0.45368  -0.43023
 Alpha  occ. eigenvalues --   -0.40695  -0.37824  -0.36795  -0.35129
 Alpha virt. eigenvalues --    0.01216   0.02509   0.02882   0.04198   0.05659
 Alpha virt. eigenvalues --    0.06031   0.06746   0.07072   0.08682   0.09587
 Alpha virt. eigenvalues --    0.10880   0.11841   0.13679   0.15496   0.16743

  Beta  occ. eigenvalues --  -19.74171 -19.70427 -19.69799 -19.68378 -10.61172
  Beta  occ. eigenvalues --  -10.60515 -10.53851  -1.31368  -1.28411  -1.05350
  Beta  occ. eigenvalues --   -0.97410  -0.85680  -0.79325  -0.69301  -0.63414
  Beta  occ. eigenvalues --   -0.60929  -0.59439  -0.56776  -0.55470  -0.52360
  Beta  occ. eigenvalues --   -0.50542  -0.46526  -0.46056  -0.44921  -0.42358
  Beta  occ. eigenvalues --   -0.40088  -0.36512  -0.34250
  Beta virt. eigenvalues --   -0.06232   0.01229   0.02532   0.02920   0.04264
  Beta virt. eigenvalues --    0.05676   0.06106   0.06818   0.07160   0.08821
  Beta virt. eigenvalues --    0.09660   0.10871   0.12002   0.13896   0.15756

 Mulliken charges and spin densities:
               1          2
     1  O   -0.136114  -0.000735
     2  O    0.048024   0.288942
     3  O   -0.270014   0.000647
     4  O   -0.177875   0.694028
     5  C   -0.175767  -0.005250
     6  C   -0.253821   0.007185
     7  C   -0.401887   0.011570
     8  H    0.204659   0.000352
     9  H    0.181047   0.002367
    10  H    0.206637   0.001199
    11  H    0.174143   0.000029
    12  H    0.162475  -0.000720
    13  H    0.153104   0.000498
    14  H    0.285388  -0.000113
 Sum of Mulliken charges =  -0.00000   1.00000

 Dipole moment (field-independent basis, Debye):
    X=             -2.3687    Y=             -0.1844    Z=              0.3462  Tot=              2.4009
 Quadrupole moment (field-independent basis, Debye-Ang):
   XX=            -44.0754   YY=            -39.5831   ZZ=            -42.1614
   XY=              6.6640   XZ=             -1.5349   YZ=              0.1391

 Normal termination of Gaussian 16 at Sun Apr 14 17:11:14 2019.
