 Gaussian 16, Revision A.03,
 Gaussian 16:  EM64L-G16RevA.03 25-Dec-2016

 ----------------------------------------------
 #p m062x/6-311+g(2df,2p) Opt=(CalcFC,ModRedun)
 ----------------------------------------------

 ----------------------------------------
 Gaussian Input Prepared from Scan Object
 ----------------------------------------
 Symbolic Z-matrix:
 Charge =  0 Multiplicity = 2

 SCF Done:  E(UM062X) =  -419.170824685     A.U. after   18 cycles

  Exact polarizability:   0.000   0.000   0.000   0.000   0.000   0.000
 Approx polarizability:  68.566  -3.463  58.176  -8.496   2.211  66.901

 Optimization completed.
    -- Stationary point found.
 SCF Done:  E(UM062X) =  -419.170734251     A.U. after   15 cycles
 SCF Done:  E(UM062X) =  -419.170748486     A.U. after   14 cycles
 Optimization completed.
 SCF Done:  E(UM062X) =  -419.170469925     A.U. after   15 cycles
 SCF Done:  E(UM062X) =  -419.170482595     A.U. after   14 cycles
 SCF Done:  E(UM062X) =  -419.169965710     A.U. after   15 cycles
 SCF Done:  E(UM062X) =  -419.169977212     A.U. after   14 cycles
 SCF Done:  E(UM062X) =  -419.169185089     A.U. after   15 cycles
 SCF Done:  E(UM062X) =  -419.169196768     A.U. after   14 cycles
 SCF Done:  E(UM062X) =  -419.168115846     A.U. after   15 cycles
 SCF Done:  E(UM062X) =  -419.170204419     A.U. after   15 cycles
 SCF Done:  E(UM062X) =  -419.170208183     A.U. after   10 cycles
 SCF Done:  E(UM062X) =  -419.170412401     A.U. after   15 cycles
 SCF Done:  E(UM062X) =  -419.170419928     A.U. after   10 cycles
 SCF Done:  E(UM062X) =  -419.170604388     A.U. after   15 cycles
 SCF Done:  E(UM062X) =  -419.170615763     A.U. after   10 cycles
 SCF Done:  E(UM062X) =  -419.170750007     A.U. after   15 cycles
 SCF Done:  E(UM062X) =  -419.170764166     A.U. after   10 cycles
    -- Stationary point found.
 SCF Done:  E(UM062X) =  -419.170809605     A.U. after   15 cycles
 SCF Done:  E(UM062X) =  -419.170824678     A.U. after   14 cycles
 Optimization completed.
    -- Stationary point found.

                         Standard orientation:
 ---------------------------------------------------------------------
 Center     Atomic      Atomic             Coordinates (Angstroms)
 Number     Number       Type             X           Y           Z
 ---------------------------------------------------------------------
      1          8           0       -1.732645   -0.154340   -0.675738
      2          8           0        1.645393   -0.403973    0.712031
      3          8           0       -2.409124   -0.026188    0.568745
      4          8           0        2.317878   -0.659673   -0.366322
      5          6           0        0.385353    0.257975    0.428106
      6          6           0       -0.461532   -0.696739   -0.406289
      7          6           0        0.610762    1.595900   -0.235624
      8          1           0       -0.055454    0.373152    1.416630
      9          1           0       -0.549973   -1.664421    0.093660
     10          1           0       -0.007126   -0.832920   -1.387891
     11          1           0        1.107039    1.461334   -1.195261
     12          1           0       -0.352658    2.074809   -0.400588
     13          1           0        1.222020    2.238072    0.395561
     14          1           0       -3.143368   -0.639452    0.451010
 ---------------------------------------------------------------------

 The electronic state is 2-A.
 Alpha  occ. eigenvalues --  -19.75021 -19.70429 -19.69801 -19.69765 -10.61147
 Alpha  occ. eigenvalues --  -10.60531 -10.53865  -1.34607  -1.28426  -1.05428
 Alpha  occ. eigenvalues --   -1.00717  -0.87030  -0.79553  -0.70108  -0.64188
 Alpha  occ. eigenvalues --   -0.62037  -0.60569  -0.59532  -0.56848  -0.55355
 Alpha  occ. eigenvalues --   -0.51458  -0.48496  -0.46641  -0.45369  -0.43024
 Alpha  occ. eigenvalues --   -0.40694  -0.37823  -0.36795  -0.35130
 Alpha virt. eigenvalues --    0.01216   0.02509   0.02882   0.04197   0.05660
 Alpha virt. eigenvalues --    0.06030   0.06745   0.07072   0.08681   0.09588
 Alpha virt. eigenvalues --    0.10881   0.11842   0.13678   0.15496   0.16743

  Beta  occ. eigenvalues --  -19.74171 -19.70427 -19.69799 -19.68377 -10.61172
  Beta  occ. eigenvalues --  -10.60515 -10.53851  -1.31368  -1.28410  -1.05350
  Beta  occ. eigenvalues --   -0.97410  -0.85679  -0.79325  -0.69300  -0.63415
  Beta  occ. eigenvalues --   -0.60928  -0.59437  -0.56775  -0.55472  -0.52359
  Beta  occ. eigenvalues --   -0.50542  -0.46524  -0.46057  -0.44920  -0.42358
  Beta  occ. eigenvalues --   -0.40088  -0.36512  -0.34250
  Beta virt. eigenvalues --   -0.06232   0.01228   0.02532   0.02920   0.04263
  Beta virt. eigenvalues --    0.05677   0.06106   0.06817   0.07160   0.08820
  Beta virt. eigenvalues --    0.09661   0.10872   0.12004   0.13896   0.15756

 Mulliken charges and spin densities:
               1          2
     1  O   -0.136098  -0.000736
     2  O    0.047983   0.288936
     3  O   -0.270044   0.000648
     4  O   -0.177852   0.694038
     5  C   -0.175817  -0.005253
     6  C   -0.253812   0.007192
     7  C   -0.401864   0.011564
     8  H    0.204699   0.000352
     9  H    0.181019   0.002364
    10  H    0.206644   0.001194
    11  H    0.174146   0.000034
    12  H    0.162483  -0.000720
    13  H    0.153119   0.000500
    14  H    0.285394  -0.000114
 Sum of Mulliken charges =  -0.00000   1.00000

 Dipole moment (field-independent basis, Debye):
    X=             -2.3695    Y=             -0.1852    Z=              0.3488  Tot=              2.4021
 Quadrupole moment (field-independent basis, Debye-Ang):
   XX=            -44.0776   YY=            -39.5819   ZZ=            -42.1608
   XY=              6.6575   XZ=             -1.5437   YZ=              0.1352

 Normal termination of Gaussian 16 at Sun Apr 14 14:41:22 2019.
