 Gaussian 16, Revision A.03,
 Gaussian 16:  EM64L-G16RevA.03 25-Dec-2016

 ----------------------------------------------
 #p m062x/6-311+g(2df,2p) Opt=(CalcFC,ModRedun)
 ----------------------------------------------

 ----------------------------------------
 Gaussian Input Prepared from Scan Object
 ----------------------------------------
 Symbolic Z-matrix:
 Charge =  0 Multiplicity = 1

 SCF Done:  E(RM062X) =  -158.412996276     A.U. after   10 cycles

  Exact polarizability:   0.000   0.000   0.000   0.000   0.000   0.000
 Approx polarizability:  57.465  -0.000  56.832  -0.082  -0.000  57.024

 Optimization completed.
    -- Stationary point found.
 SCF Done:  E(RM062X) =  -158.411338872     A.U. after    9 cycles
 SCF Done:  E(RM062X) =  -158.412652379     A.U. after    9 cycles
 SCF Done:  E(RM062X) =  -158.412670838     A.U. after    8 cycles
 SCF Done:  E(RM062X) =  -158.412670951     A.U. after    6 cycles
 Optimization completed.
 SCF Done:  E(RM062X) =  -158.410318626     A.U. after    9 cycles
 SCF Done:  E(RM062X) =  -158.411620537     A.U. after    9 cycles
 SCF Done:  E(RM062X) =  -158.411642107     A.U. after    8 cycles
 SCF Done:  E(RM062X) =  -158.411642222     A.U. after    6 cycles
 SCF Done:  E(RM062X) =  -158.408595257     A.U. after    9 cycles
 SCF Done:  E(RM062X) =  -158.412075700     A.U. after    6 cycles
 SCF Done:  E(RM062X) =  -158.411291131     A.U. after    9 cycles
 SCF Done:  E(RM062X) =  -158.412695529     A.U. after    9 cycles
 SCF Done:  E(RM062X) =  -158.412738045     A.U. after    8 cycles
 SCF Done:  E(RM062X) =  -158.412739101     A.U. after    7 cycles
    -- Stationary point found.
 SCF Done:  E(RM062X) =  -158.411571805     A.U. after    9 cycles
 SCF Done:  E(RM062X) =  -158.412954945     A.U. after    9 cycles
 SCF Done:  E(RM062X) =  -158.412995502     A.U. after    8 cycles
 SCF Done:  E(RM062X) =  -158.412996203     A.U. after    7 cycles
 SCF Done:  E(RM062X) =  -158.412996275     A.U. after    6 cycles
 Optimization completed.
    -- Stationary point found.

                         Standard orientation:
 ---------------------------------------------------------------------
 Center     Atomic      Atomic             Coordinates (Angstroms)
 Number     Number       Type             X           Y           Z
 ---------------------------------------------------------------------
      1          6           0       -0.702548   -0.634247   -0.300439
      2          6           0        0.702558   -0.634254    0.300443
      3          6           0       -1.544007    0.565637    0.123645
      4          6           0        1.543993    0.565651   -0.123640
      5          1           0       -0.624511   -0.657913   -1.390922
      6          1           0       -1.213878   -1.553541   -0.008076
      7          1           0        1.213887   -1.553524    0.008002
      8          1           0        0.624583   -0.657969    1.390931
      9          1           0       -1.593082    0.637508    1.211818
     10          1           0       -2.563353    0.485548   -0.252266
     11          1           0       -1.128008    1.500027   -0.252107
     12          1           0        1.128150    1.500006    0.252367
     13          1           0        1.592813    0.637704   -1.211815
     14          1           0        2.563423    0.485431    0.252013
 ---------------------------------------------------------------------

 The electronic state is 1-A.
 Alpha  occ. eigenvalues --  -10.52517 -10.52480 -10.51770 -10.51770  -0.89464
 Alpha  occ. eigenvalues --   -0.81277  -0.72806  -0.64680  -0.52886  -0.52541
 Alpha  occ. eigenvalues --   -0.48253  -0.44714  -0.44494  -0.42037  -0.38244
 Alpha  occ. eigenvalues --   -0.38019  -0.37956
 Alpha virt. eigenvalues --    0.01714   0.03345   0.03362   0.03997   0.06564
 Alpha virt. eigenvalues --    0.07194   0.07484   0.07513   0.07832   0.10893
 Alpha virt. eigenvalues --    0.10968   0.11440   0.11963   0.12241   0.14915

 Mulliken charges:
               1
     1  C   -0.261574
     2  C   -0.261533
     3  C   -0.459604
     4  C   -0.459631
     5  H    0.160843
     6  H    0.144694
     7  H    0.144696
     8  H    0.160837
     9  H    0.139016
    10  H    0.136396
    11  H    0.140217
    12  H    0.140221
    13  H    0.139022
    14  H    0.136397
 Sum of Mulliken charges =  -0.00000

 Dipole moment (field-independent basis, Debye):
    X=              0.0000    Y=             -0.0952    Z=             -0.0000  Tot=              0.0952
 Quadrupole moment (field-independent basis, Debye-Ang):
   XX=            -28.7893   YY=            -28.8505   ZZ=            -28.4279
   XY=             -0.0000   XZ=              0.0305   YZ=              0.0000

 Normal termination of Gaussian 16 at Tue Apr  9 18:01:06 2019.
