 Gaussian 16, Revision A.03,
 Gaussian 16:  EM64L-G16RevA.03 25-Dec-2016

 ----------------------------------------------------------------------
 #p m062x/6-311+g(2df,2p) opt=(calcfc,verytight,gdiis,maxcycles=900) fr
 eq iop(7/33=1,2/16=3)
 ----------------------------------------------------------------------

 ------------------------------
 Gaussian input prepared by ASE
 ------------------------------
 Symbolic Z-matrix:
 Charge =  0 Multiplicity = 1

 SCF Done:  E(RM062X) =  -158.405341639     A.U. after   10 cycles
 SCF Done:  E(RM062X) =  -158.410641111     A.U. after   10 cycles
 SCF Done:  E(RM062X) =  -158.411827381     A.U. after   11 cycles
 SCF Done:  E(RM062X) =  -158.412285526     A.U. after    9 cycles
 SCF Done:  E(RM062X) =  -158.412905034     A.U. after    9 cycles
 SCF Done:  E(RM062X) =  -158.412978621     A.U. after    8 cycles
 SCF Done:  E(RM062X) =  -158.412995236     A.U. after    8 cycles
 SCF Done:  E(RM062X) =  -158.412996245     A.U. after    7 cycles
 SCF Done:  E(RM062X) =  -158.412996274     A.U. after    6 cycles
 SCF Done:  E(RM062X) =  -158.412996276     A.U. after    4 cycles
 SCF Done:  E(RM062X) =  -158.412996276     A.U. after    3 cycles
 Optimization completed.
    -- Stationary point found.
 Normal termination of Gaussian 16 at Mon Apr  8 16:48:05 2019.

 ----------------------------------------------------------------------
 #P Geom=AllCheck Guess=TCheck SCRF=Check Test GenChk RM062X/6-311+G(2d
 f,2p) Freq
 ----------------------------------------------------------------------

 Structure from the checkpoint file:  "/scratch/underkoffler.c/gaussian_scratch/Gau-18497.chk"
 ------------------------------
 Gaussian input prepared by ASE
 ------------------------------
 Charge =  0 Multiplicity = 1

                         Standard orientation:
 ---------------------------------------------------------------------
 Center     Atomic      Atomic             Coordinates (Angstroms)
 Number     Number       Type             X           Y           Z
 ---------------------------------------------------------------------
      1          6           0       -0.702556    0.634252    0.300435
      2          6           0        0.702555    0.634252   -0.300435
      3          6           0       -1.543996   -0.565645   -0.123641
      4          6           0        1.543997   -0.565645    0.123641
      5          1           0       -0.624544    0.657942    1.390919
      6          1           0       -1.213885    1.553534    0.008030
      7          1           0        1.213885    1.553534   -0.008030
      8          1           0        0.624544    0.657941   -1.390919
      9          1           0       -2.563379   -0.485497    0.252157
     10          1           0       -1.128069   -1.500017    0.252233
     11          1           0       -1.592960   -0.637603   -1.211814
     12          1           0        1.128072   -1.500017   -0.252235
     13          1           0        1.592958   -0.637604    1.211814
     14          1           0        2.563380   -0.485495   -0.252155
 ---------------------------------------------------------------------

 SCF Done:  E(RM062X) =  -158.412996276     A.U. after    1 cycles

 The electronic state is 1-A.
 Alpha  occ. eigenvalues --  -10.52517 -10.52480 -10.51770 -10.51770  -0.89464
 Alpha  occ. eigenvalues --   -0.81277  -0.72806  -0.64680  -0.52886  -0.52541
 Alpha  occ. eigenvalues --   -0.48253  -0.44714  -0.44494  -0.42037  -0.38244
 Alpha  occ. eigenvalues --   -0.38019  -0.37956
 Alpha virt. eigenvalues --    0.01714   0.03345   0.03362   0.03997   0.06564
 Alpha virt. eigenvalues --    0.07194   0.07484   0.07513   0.07832   0.10893
 Alpha virt. eigenvalues --    0.10968   0.11440   0.11963   0.12241   0.14915

 Mulliken charges:
               1
     1  C   -0.261557
     2  C   -0.261557
     3  C   -0.459614
     4  C   -0.459614
     5  H    0.160840
     6  H    0.144696
     7  H    0.144696
     8  H    0.160840
     9  H    0.136397
    10  H    0.140219
    11  H    0.139019
    12  H    0.140219
    13  H    0.139019
    14  H    0.136397
 Sum of Mulliken charges =  -0.00000

 Dipole moment (field-independent basis, Debye):
    X=              0.0000    Y=              0.0952    Z=             -0.0000  Tot=              0.0952
 Quadrupole moment (field-independent basis, Debye-Ang):
   XX=            -28.7893   YY=            -28.8505   ZZ=            -28.4279
   XY=             -0.0000   XZ=             -0.0305   YZ=             -0.0000

  Exact polarizability:  55.243  -0.000  49.330  -0.157  -0.000  46.444
 Approx polarizability:  57.465  -0.000  56.832  -0.082  -0.000  57.024

                      1                      2                      3
                      A                      A                      A
 Frequencies --    111.4539               211.0151               292.4499
 Red. masses --      1.5259                 1.0448                 1.4056
 Frc consts  --      0.0112                 0.0274                 0.0708
 IR Inten    --      0.0039                 0.0302                 0.0219

                      4                      5                      6
                      A                      A                      A
 Frequencies --    323.1328               439.5015               751.9708
 Red. masses --      1.7219                 1.9654                 1.1504
 Frc consts  --      0.1059                 0.2237                 0.3833
 IR Inten    --      0.0306                 0.3604                 3.6331

                      7                      8                      9
                      A                      A                      A
 Frequencies --    805.7772               845.2108               968.4210
 Red. masses --      1.2788                 1.9340                 1.1571
 Frc consts  --      0.4892                 0.8140                 0.6393
 IR Inten    --      1.7284                 0.0065                 2.5909

                     10                     11                     12
                      A                      A                      A
 Frequencies --    980.6697               997.4720              1103.2652
 Red. masses --      2.0856                 1.3460                 2.0663
 Frc consts  --      1.1817                 0.7890                 1.4818
 IR Inten    --      1.4428                 0.1856                 0.1863

                     13                     14                     15
                      A                      A                      A
 Frequencies --   1157.4999              1199.9454              1290.5032
 Red. masses --      1.8718                 1.8467                 1.2322
 Frc consts  --      1.4776                 1.5666                 1.2091
 IR Inten    --      2.0409                 0.0714                 0.2227

                     16                     17                     18
                      A                      A                      A
 Frequencies --   1314.3796              1374.4160              1380.9349
 Red. masses --      1.1708                 1.2954                 1.5377
 Frc consts  --      1.1917                 1.4417                 1.7277
 IR Inten    --      0.4328                 0.9345                 0.2328

                     19                     20                     21
                      A                      A                      A
 Frequencies --   1415.4897              1417.5796              1490.4726
 Red. masses --      1.2367                 1.3344                 1.0581
 Frc consts  --      1.4599                 1.5799                 1.3849
 IR Inten    --      4.9273                 6.5187                 0.2244

                     22                     23                     24
                      A                      A                      A
 Frequencies --   1493.1203              1504.0226              1510.3681
 Red. masses --      1.0600                 1.0375                 1.0792
 Frc consts  --      1.3923                 1.3828                 1.4505
 IR Inten    --      0.0714                 8.7806                 5.5085

                     25                     26                     27
                      A                      A                      A
 Frequencies --   1511.0704              1521.1368              3046.0026
 Red. masses --      1.0638                 1.0518                 1.0666
 Frc consts  --      1.4312                 1.4339                 5.8305
 IR Inten    --     14.1957                 0.9135                12.7980

                     28                     29                     30
                      A                      A                      A
 Frequencies --   3048.5709              3059.6881              3061.2425
 Red. masses --      1.0595                 1.0374                 1.0380
 Frc consts  --      5.8015                 5.7222                 5.7312
 IR Inten    --     24.3969                20.8288                26.4466

                     31                     32                     33
                      A                      A                      A
 Frequencies --   3083.9400              3087.5659              3125.9257
 Red. masses --      1.0956                 1.1033                 1.1012
 Frc consts  --      6.1391                 6.1971                 6.3400
 IR Inten    --     22.2296                20.9930                61.1794

                     34                     35                     36
                      A                      A                      A
 Frequencies --   3127.2370              3133.9554              3140.5592
 Red. masses --      1.1000                 1.1020                 1.1013
 Frc consts  --      6.3384                 6.3770                 6.3998
 IR Inten    --      3.3796                45.2292                24.5229

 - Thermochemistry -
 -------------------
 Temperature   298.150 Kelvin.  Pressure   1.00000 Atm.
 Atom     1 has atomic number  6 and mass  12.00000

 Molecular mass:    58.07825 amu.
 Principal axes and moments of inertia in atomic units:
                           1         2         3
     Eigenvalues --   137.62066 369.21308 437.92249
           X            1.00000  -0.00000   0.00286
           Y            0.00000   1.00000  -0.00000
           Z           -0.00286   0.00000   1.00000
 This molecule is an asymmetric top.
 Rotational symmetry number  1.
 Rotational temperatures (Kelvin)      0.62937     0.23459     0.19778
 Rotational constants (GHZ):          13.11388     4.88807     4.12114
 Zero-point vibrational energy     348866.8 (Joules/Mol)
                                   83.38116 (Kcal/Mol)
 Warning -- explicit consideration of   5 degrees of freedom as
           vibrations may cause significant error
 Vibrational temperatures:    160.36   303.60   420.77   464.92   632.34
          (Kelvin)           1081.92  1159.33  1216.07  1393.34  1410.97
                             1435.14  1587.35  1665.38  1726.45  1856.75
                             1891.10  1977.48  1986.86  2036.57  2039.58
                             2144.46  2148.27  2163.95  2173.08  2174.09
                             2188.58  4382.52  4386.21  4402.21  4404.45
                             4437.10  4442.32  4497.51  4499.40  4509.06
                             4518.56

 Zero-point correction=                           0.132876 (Hartree/Particle)
 Thermal correction to Energy=                    0.138558
 Thermal correction to Enthalpy=                  0.139502
 Thermal correction to Gibbs Free Energy=         0.104889
 Sum of electronic and zero-point Energies=           -158.280120
 Sum of electronic and thermal Energies=              -158.274439
 Sum of electronic and thermal Enthalpies=            -158.273494
 Sum of electronic and thermal Free Energies=         -158.308107

                     E (Thermal)             CV                S
                      KCal/Mol        Cal/Mol-Kelvin    Cal/Mol-Kelvin
 Total                   86.946             19.454             72.848
 Electronic               0.000              0.000              0.000
 Translational            0.889              2.981             38.098
 Rotational               0.889              2.981             24.613
 Vibrational             85.169             13.492             10.137
 Vibration     1          0.607              1.940              3.243
 Vibration     2          0.643              1.824              2.035
 Vibration     3          0.688              1.688              1.460
 Vibration     4          0.708              1.629              1.294
 Vibration     5          0.800              1.384              0.828

                           ! Non-Optimized Parameters !
 Normal termination of Gaussian 16 at Mon Apr  8 16:52:19 2019.
