 Gaussian 16, Revision A.03,
 Gaussian 16:  EM64L-G16RevA.03 25-Dec-2016

 ----------------------------------------------
 #p m062x/6-311+g(2df,2p) Opt=(CalcFC,ModRedun)
 ----------------------------------------------

 ----------------------------------------
 Gaussian Input Prepared from Scan Object
 ----------------------------------------
 Symbolic Z-matrix:
 Charge =  0 Multiplicity = 2

 SCF Done:  E(UM062X) =  -232.964478818     A.U. after   14 cycles

  Exact polarizability:   0.000   0.000   0.000   0.000   0.000   0.000
 Approx polarizability:  64.570  -0.256  58.973   0.189   0.499  59.779

 Optimization completed.
    -- Stationary point found.
 SCF Done:  E(UM062X) =  -232.962699685     A.U. after   12 cycles
 SCF Done:  E(UM062X) =  -232.964131516     A.U. after   11 cycles
 SCF Done:  E(UM062X) =  -232.964161614     A.U. after    9 cycles
 Optimization completed.
 SCF Done:  E(UM062X) =  -232.961768700     A.U. after   12 cycles
 SCF Done:  E(UM062X) =  -232.963245056     A.U. after   11 cycles
 SCF Done:  E(UM062X) =  -232.963278359     A.U. after    9 cycles
 SCF Done:  E(UM062X) =  -232.963278448     A.U. after    6 cycles
 SCF Done:  E(UM062X) =  -232.960414292     A.U. after   12 cycles
 SCF Done:  E(UM062X) =  -232.961991370     A.U. after   11 cycles
 SCF Done:  E(UM062X) =  -232.963301553     A.U. after    9 cycles
 SCF Done:  E(UM062X) =  -232.963301801     A.U. after    8 cycles
 SCF Done:  E(UM062X) =  -232.962636805     A.U. after   12 cycles
 SCF Done:  E(UM062X) =  -232.964140911     A.U. after   11 cycles
 SCF Done:  E(UM062X) =  -232.964168530     A.U. after    9 cycles
 SCF Done:  E(UM062X) =  -232.964168636     A.U. after    8 cycles
    -- Stationary point found.
 SCF Done:  E(UM062X) =  -232.963008290     A.U. after   12 cycles
 SCF Done:  E(UM062X) =  -232.964450555     A.U. after   11 cycles
 SCF Done:  E(UM062X) =  -232.964478447     A.U. after    9 cycles
 SCF Done:  E(UM062X) =  -232.964478803     A.U. after    7 cycles
 Optimization completed.
    -- Stationary point found.

                         Standard orientation:
 ---------------------------------------------------------------------
 Center     Atomic      Atomic             Coordinates (Angstroms)
 Number     Number       Type             X           Y           Z
 ---------------------------------------------------------------------
      1          8           0        0.768917   -0.539498   -0.343146
      2          6           0       -0.370979    0.004104    0.322594
      3          6           0       -0.611704    1.431880   -0.138983
      4          6           0       -1.537103   -0.908628    0.006834
      5          6           0        1.968887   -0.167103    0.139953
      6          1           0       -0.169449   -0.011402    1.399135
      7          1           0        0.257393    2.059916    0.052309
      8          1           0       -1.466553    1.859552    0.384166
      9          1           0       -0.816536    1.442607   -1.209807
     10          1           0       -2.441980   -0.549239    0.495254
     11          1           0       -1.707955   -0.930002   -1.069614
     12          1           0       -1.332548   -1.922440    0.345451
     13          1           0        2.022342    0.658840    0.835293
     14          1           0        2.809338   -0.453360   -0.469407
 ---------------------------------------------------------------------

 The electronic state is 2-A.
 Alpha  occ. eigenvalues --  -19.65200 -10.59681 -10.57270 -10.52962 -10.52760
 Alpha  occ. eigenvalues --   -1.19243  -0.89634  -0.79297  -0.75644  -0.67281
 Alpha  occ. eigenvalues --   -0.58608  -0.55828  -0.53788  -0.49519  -0.46683
 Alpha  occ. eigenvalues --   -0.46014  -0.44571  -0.42538  -0.39542  -0.39393
 Alpha  occ. eigenvalues --   -0.22428
 Alpha virt. eigenvalues --    0.01794   0.03345   0.03824   0.04031   0.05879
 Alpha virt. eigenvalues --    0.06435   0.07406   0.07571   0.08504   0.10073
 Alpha virt. eigenvalues --    0.10695   0.11676   0.12634   0.13112   0.14124

  Beta  occ. eigenvalues --  -19.64745 -10.59692 -10.56587 -10.52953 -10.52759
  Beta  occ. eigenvalues --   -1.17812  -0.89308  -0.79140  -0.73496  -0.66365
  Beta  occ. eigenvalues --   -0.57524  -0.55187  -0.52463  -0.48489  -0.46367
  Beta  occ. eigenvalues --   -0.45740  -0.43448  -0.42200  -0.39021  -0.37366
  Beta virt. eigenvalues --   -0.00586   0.01603   0.03168   0.03859   0.04130
  Beta virt. eigenvalues --    0.06011   0.06560   0.07278   0.07578   0.08847
  Beta virt. eigenvalues --    0.09509   0.10577   0.11721   0.12393   0.13170

 Mulliken charges and spin densities:
               1          2
     1  O   -0.040644   0.064038
     2  C   -0.275932   0.018011
     3  C   -0.332020   0.006909
     4  C   -0.419508   0.006248
     5  C   -0.309325   0.988907
     6  H    0.170950   0.001671
     7  H    0.137407  -0.004406
     8  H    0.144025  -0.001049
     9  H    0.162009  -0.000577
    10  H    0.140848  -0.000364
    11  H    0.159803  -0.000494
    12  H    0.151669   0.000233
    13  H    0.146834  -0.042552
    14  H    0.163884  -0.036576
 Sum of Mulliken charges =  -0.00000   1.00000

 Dipole moment (field-independent basis, Debye):
    X=             -0.9761    Y=              1.0235    Z=              0.6151  Tot=              1.5423
 Quadrupole moment (field-independent basis, Debye-Ang):
   XX=            -31.8678   YY=            -33.7674   ZZ=            -33.3832
   XY=              1.1055   XZ=             -0.4484   YZ=              0.4821

 Normal termination of Gaussian 16 at Mon Mar 11 02:54:01 2019.
