 Gaussian 16, Revision A.03,
 Gaussian 16:  EM64L-G16RevA.03 25-Dec-2016

 ----------------------------------------------------------------------
 #p m062x/6-311+g(2df,2p) opt=(calcfc,verytight,gdiis,maxcycles=900) fr
 eq iop(7/33=1,2/16=3)
 ----------------------------------------------------------------------

 ------------------------------
 Gaussian input prepared by ASE
 ------------------------------
 Symbolic Z-matrix:
 Charge =  0 Multiplicity = 2

 SCF Done:  E(UM062X) =  -232.944427115     A.U. after   14 cycles
 SCF Done:  E(UM062X) =  -232.960549520     A.U. after   14 cycles
 SCF Done:  E(UM062X) =  -232.962354320     A.U. after   15 cycles
 SCF Done:  E(UM062X) =  -232.962436938     A.U. after   15 cycles
 SCF Done:  E(UM062X) =  -232.963803714     A.U. after   13 cycles
 SCF Done:  E(UM062X) =  -232.964362755     A.U. after   12 cycles
 SCF Done:  E(UM062X) =  -232.964409034     A.U. after   11 cycles
 SCF Done:  E(UM062X) =  -232.964432011     A.U. after   10 cycles
 SCF Done:  E(UM062X) =  -232.964449832     A.U. after   10 cycles
 SCF Done:  E(UM062X) =  -232.964454011     A.U. after    9 cycles
 SCF Done:  E(UM062X) =  -232.964478045     A.U. after    9 cycles
 SCF Done:  E(UM062X) =  -232.964478426     A.U. after    8 cycles
 SCF Done:  E(UM062X) =  -232.964478780     A.U. after    9 cycles
 SCF Done:  E(UM062X) =  -232.964478819     A.U. after    7 cycles
 SCF Done:  E(UM062X) =  -232.964478818     A.U. after    6 cycles
 SCF Done:  E(UM062X) =  -232.964478818     A.U. after    3 cycles
 SCF Done:  E(UM062X) =  -232.964478818     A.U. after    2 cycles
 SCF Done:  E(UM062X) =  -232.964478818     A.U. after    2 cycles
 SCF Done:  E(UM062X) =  -232.964478818     A.U. after    2 cycles
 Optimization completed.
    -- Stationary point found.
 Normal termination of Gaussian 16 at Sun Mar 10 20:44:32 2019.

 ----------------------------------------------------------------------
 #P Geom=AllCheck Guess=TCheck SCRF=Check Test GenChk UM062X/6-311+G(2d
 f,2p) Freq
 ----------------------------------------------------------------------

 Structure from the checkpoint file:  "/scratch/underkoffler.c/gaussian_scratch/Gau-20327.chk"
 ------------------------------
 Gaussian input prepared by ASE
 ------------------------------
 Charge =  0 Multiplicity = 2

                         Standard orientation:
 ---------------------------------------------------------------------
 Center     Atomic      Atomic             Coordinates (Angstroms)
 Number     Number       Type             X           Y           Z
 ---------------------------------------------------------------------
      1          8           0       -0.768972   -0.539580    0.343053
      2          6           0        0.370924    0.004039   -0.322666
      3          6           0        0.611763    1.431768    0.139008
      4          6           0        1.537146   -0.908545   -0.006809
      5          6           0       -1.968943   -0.166994   -0.139892
      6          1           0        0.169351   -0.011355   -1.399201
      7          1           0       -0.257376    2.059819   -0.052025
      8          1           0        1.466487    1.859491   -0.384303
      9          1           0        0.816855    1.442390    1.209786
     10          1           0        2.441944   -0.548936   -0.495221
     11          1           0        1.707939   -0.929647    1.069651
     12          1           0        1.332995   -1.922478   -0.345306
     13          1           0       -2.022383    0.659040   -0.835124
     14          1           0       -2.809377   -0.453293    0.469470
 ---------------------------------------------------------------------

 SCF Done:  E(UM062X) =  -232.964478818     A.U. after    1 cycles

 The electronic state is 2-A.
 Alpha  occ. eigenvalues --  -19.65200 -10.59682 -10.57270 -10.52962 -10.52760
 Alpha  occ. eigenvalues --   -1.19242  -0.89634  -0.79296  -0.75644  -0.67282
 Alpha  occ. eigenvalues --   -0.58608  -0.55829  -0.53788  -0.49519  -0.46684
 Alpha  occ. eigenvalues --   -0.46013  -0.44570  -0.42538  -0.39542  -0.39394
 Alpha  occ. eigenvalues --   -0.22428
 Alpha virt. eigenvalues --    0.01794   0.03345   0.03824   0.04031   0.05879
 Alpha virt. eigenvalues --    0.06435   0.07406   0.07571   0.08504   0.10072
 Alpha virt. eigenvalues --    0.10694   0.11676   0.12634   0.13112   0.14123

  Beta  occ. eigenvalues --  -19.64745 -10.59692 -10.56587 -10.52953 -10.52759
  Beta  occ. eigenvalues --   -1.17812  -0.89308  -0.79139  -0.73497  -0.66365
  Beta  occ. eigenvalues --   -0.57524  -0.55187  -0.52463  -0.48489  -0.46366
  Beta  occ. eigenvalues --   -0.45739  -0.43449  -0.42201  -0.39021  -0.37366
  Beta virt. eigenvalues --   -0.00586   0.01603   0.03167   0.03859   0.04130
  Beta virt. eigenvalues --    0.06011   0.06560   0.07278   0.07578   0.08847
  Beta virt. eigenvalues --    0.09509   0.10577   0.11721   0.12393   0.13171

 Mulliken charges and spin densities:
               1          2
     1  O   -0.040639   0.064034
     2  C   -0.276005   0.018027
     3  C   -0.331962   0.006916
     4  C   -0.419510   0.006239
     5  C   -0.309321   0.988907
     6  H    0.170951   0.001670
     7  H    0.137407  -0.004407
     8  H    0.144039  -0.001048
     9  H    0.161998  -0.000578
    10  H    0.140850  -0.000364
    11  H    0.159811  -0.000494
    12  H    0.151663   0.000231
    13  H    0.146831  -0.042554
    14  H    0.163886  -0.036577
 Sum of Mulliken charges =  -0.00000   1.00000

 Dipole moment (field-independent basis, Debye):
    X=              0.9762    Y=              1.0235    Z=             -0.6150  Tot=              1.5424
 Quadrupole moment (field-independent basis, Debye-Ang):
   XX=            -31.8680   YY=            -33.7674   ZZ=            -33.3832
   XY=             -1.1057   XZ=             -0.4486   YZ=             -0.4822

  Exact polarizability:  64.091   0.144  53.834   0.750   1.057  48.983
 Approx polarizability:  64.570   0.256  58.973   0.189  -0.499  59.779

                      1                      2                      3
                      A                      A                      A
 Frequencies --    126.4276               211.2658               213.6196
 Red. masses --      3.0962                 1.0336                 1.1371
 Frc consts  --      0.0292                 0.0272                 0.0306
 IR Inten    --      1.9241                 0.0548                 4.7443

                      4                      5                      6
                      A                      A                      A
 Frequencies --    252.7600               325.7245               361.0416
 Red. masses --      1.1016                 2.3639                 2.2164
 Frc consts  --      0.0415                 0.1478                 0.1702
 IR Inten    --      0.0139                 0.2111                 0.7419

                      7                      8                      9
                      A                      A                      A
 Frequencies --    443.8236               464.7966               518.0323
 Red. masses --      1.5567                 1.8154                 2.6410
 Frc consts  --      0.1807                 0.2311                 0.4176
 IR Inten    --     26.2024                34.3081                 1.7303

                     10                     11                     12
                      A                      A                      A
 Frequencies --    825.3749               936.0443               944.3050
 Red. masses --      2.4178                 1.1626                 1.7839
 Frc consts  --      0.9705                 0.6002                 0.9372
 IR Inten    --      5.6351                 1.0054                 7.2490

                     13                     14                     15
                      A                      A                      A
 Frequencies --    958.5893              1136.2574              1164.2783
 Red. masses --      1.6783                 1.5038                 1.9922
 Frc consts  --      0.9086                 1.1439                 1.5911
 IR Inten    --      5.6716                12.1004                 9.0878

                     16                     17                     18
                      A                      A                      A
 Frequencies --   1203.4102              1235.6322              1309.2130
 Red. masses --      1.9304                 1.7877                 5.1054
 Frc consts  --      1.6471                 1.6082                 5.1559
 IR Inten    --      9.6448                23.6855               241.4563

                     19                     20                     21
                      A                      A                      A
 Frequencies --   1373.5468              1386.5997              1409.9462
 Red. masses --      1.2851                 1.2132                 1.4335
 Frc consts  --      1.4284                 1.3744                 1.6790
 IR Inten    --      3.9856                15.6108                24.0860

                     22                     23                     24
                      A                      A                      A
 Frequencies --   1423.0605              1484.8837              1489.2753
 Red. masses --      1.3130                 1.0616                 1.0770
 Frc consts  --      1.5666                 1.3791                 1.4074
 IR Inten    --     21.8665                 1.2015                 1.0217

                     25                     26                     27
                      A                      A                      A
 Frequencies --   1495.0390              1499.5975              1514.8334
 Red. masses --      1.1447                 1.0766                 1.0594
 Frc consts  --      1.5075                 1.4264                 1.4323
 IR Inten    --      8.0680                 5.2805                 7.7237

                     28                     29                     30
                      A                      A                      A
 Frequencies --   3032.4104              3065.9910              3071.8885
 Red. masses --      1.0844                 1.0348                 1.0354
 Frc consts  --      5.8752                 5.7312                 5.7567
 IR Inten    --     22.1762                11.0389                11.2908

                     31                     32                     33
                      A                      A                      A
 Frequencies --   3139.7353              3144.4912              3147.4518
 Red. masses --      1.1028                 1.1015                 1.1019
 Frc consts  --      6.4052                 6.4172                 6.4313
 IR Inten    --      2.4882                10.3975                30.5392

                     34                     35                     36
                      A                      A                      A
 Frequencies --   3155.2937              3161.2857              3301.7176
 Red. masses --      1.1030                 1.0483                 1.1232
 Frc consts  --      6.4697                 6.1725                 7.2142
 IR Inten    --     15.8559                22.3439                 6.1957

 - Thermochemistry -
 -------------------
 Temperature   298.150 Kelvin.  Pressure   1.00000 Atm.
 Atom     1 has atomic number  8 and mass  15.99491

 Molecular mass:    73.06534 amu.
 Principal axes and moments of inertia in atomic units:
                           1         2         3
     Eigenvalues --   229.96915 449.32837 610.50664
           X            0.99941  -0.03383   0.00647
           Y            0.03382   0.99943   0.00177
           Z           -0.00652  -0.00155   0.99998
 This molecule is an asymmetric top.
 Rotational symmetry number  1.
 Rotational temperatures (Kelvin)      0.37663     0.19276     0.14187
 Rotational constants (GHZ):           7.84775     4.01653     2.95614
 Zero-point vibrational energy     322558.9 (Joules/Mol)
                                   77.09344 (Kcal/Mol)
 Warning -- explicit consideration of   9 degrees of freedom as
           vibrations may cause significant error
 Vibrational temperatures:    181.90   303.96   307.35   363.67   468.64
          (Kelvin)            519.46   638.56   668.74   745.33  1187.53
                             1346.76  1358.64  1379.20  1634.82  1675.14
                             1731.44  1777.80  1883.67  1976.23  1995.01
                             2028.60  2047.47  2136.42  2142.74  2151.03
                             2157.59  2179.51  4362.96  4411.28  4419.76
                             4517.38  4524.22  4528.48  4539.76  4548.39
                             4750.44

 Zero-point correction=                           0.122856 (Hartree/Particle)
 Thermal correction to Energy=                    0.129755
 Thermal correction to Enthalpy=                  0.130699
 Thermal correction to Gibbs Free Energy=         0.092680
 Sum of electronic and zero-point Energies=           -232.841623
 Sum of electronic and thermal Energies=              -232.834724
 Sum of electronic and thermal Enthalpies=            -232.833780
 Sum of electronic and thermal Free Energies=         -232.871799

                     E (Thermal)             CV                S
                      KCal/Mol        Cal/Mol-Kelvin    Cal/Mol-Kelvin
 Total                   81.422             24.125             80.017
 Electronic               0.000              0.000              1.377
 Translational            0.889              2.981             38.783
 Rotational               0.889              2.981             25.648
 Vibrational             79.645             18.163             14.209
 Vibration     1          0.611              1.927              3.000
 Vibration     2          0.643              1.824              2.033
 Vibration     3          0.644              1.820              2.013
 Vibration     4          0.664              1.758              1.711
 Vibration     5          0.710              1.624              1.281
 Vibration     6          0.735              1.553              1.118
 Vibration     7          0.803              1.375              0.815
 Vibration     8          0.822              1.328              0.752
 Vibration     9          0.873              1.210              0.615

                           ! Non-Optimized Parameters !
 Normal termination of Gaussian 16 at Sun Mar 10 20:53:43 2019.
