 Gaussian 16, Revision A.03,
 Gaussian 16:  EM64L-G16RevA.03 25-Dec-2016

 ----------------------------------------------------------------------
 #p m062x/6-311+g(2df,2p) opt=(calcfc,verytight,gdiis,maxcycles=900) fr
 eq iop(7/33=1,2/16=3)
 ----------------------------------------------------------------------

 -----------------------------------
 Gaussian input prepared by Avogadro
 -----------------------------------
 Symbolic Z-matrix:
 Charge =  0 Multiplicity = 2

 SCF Done:  E(UM062X) =  -419.154478871     A.U. after   20 cycles
 SCF Done:  E(UM062X) =  -419.168314037     A.U. after   16 cycles
 SCF Done:  E(UM062X) =  -419.165825061     A.U. after   19 cycles
 SCF Done:  E(UM062X) =  -419.168547270     A.U. after   19 cycles
 SCF Done:  E(UM062X) =  -419.169617057     A.U. after   15 cycles
 SCF Done:  E(UM062X) =  -419.169637341     A.U. after   14 cycles
 SCF Done:  E(UM062X) =  -419.169640693     A.U. after   13 cycles
 SCF Done:  E(UM062X) =  -419.169640868     A.U. after   12 cycles
 SCF Done:  E(UM062X) =  -419.169640918     A.U. after   12 cycles
 SCF Done:  E(UM062X) =  -419.169640914     A.U. after   11 cycles
 SCF Done:  E(UM062X) =  -419.169640912     A.U. after    5 cycles
 SCF Done:  E(UM062X) =  -419.169640912     A.U. after    2 cycles
 SCF Done:  E(UM062X) =  -419.169640912     A.U. after    2 cycles
 SCF Done:  E(UM062X) =  -419.169640912     A.U. after    2 cycles
 SCF Done:  E(UM062X) =  -419.169640912     A.U. after    2 cycles
 SCF Done:  E(UM062X) =  -419.169640912     A.U. after    2 cycles
 Optimization completed.
    -- Stationary point found.
 Normal termination of Gaussian 16 at Thu Apr 18 15:25:19 2019.

 ----------------------------------------------------------------------
 #P Geom=AllCheck Guess=TCheck SCRF=Check Test GenChk UM062X/6-311+G(2d
 f,2p) Freq
 ----------------------------------------------------------------------

 Structure from the checkpoint file:  "/scratch/underkoffler.c/gaussian_scratch/Gau-26971.chk"
 -----------------------------------
 Gaussian input prepared by Avogadro
 -----------------------------------
 Charge =  0 Multiplicity = 2

                         Standard orientation:
 ---------------------------------------------------------------------
 Center     Atomic      Atomic             Coordinates (Angstroms)
 Number     Number       Type             X           Y           Z
 ---------------------------------------------------------------------
      1          8           0       -1.536983    0.219528   -0.461039
      2          8           0        1.203563    0.783682   -0.617726
      3          8           0       -1.675287    0.108974    0.943848
      4          8           0        0.724753    1.558555    0.303040
      5          6           0        0.806853   -0.600853   -0.452545
      6          6           0       -0.648123   -0.765941   -0.909331
      7          6           0        1.154634   -1.112218    0.931366
      8          1           0        1.431926   -1.108602   -1.188636
      9          1           0       -0.996415   -1.762049   -0.621011
     10          1           0       -0.699891   -0.669564   -1.994288
     11          1           0        0.599539   -0.600892    1.709523
     12          1           0        0.913283   -2.172976    0.983344
     13          1           0        2.221465   -0.991171    1.112719
     14          1           0       -1.078462    0.813402    1.236428
 ---------------------------------------------------------------------

 SCF Done:  E(UM062X) =  -419.169640912     A.U. after    1 cycles

 The electronic state is 2-A.
 Alpha  occ. eigenvalues --  -19.75899 -19.70815 -19.69428 -19.68072 -10.62444
 Alpha  occ. eigenvalues --  -10.61011 -10.54980  -1.35559  -1.27403  -1.04600
 Alpha  occ. eigenvalues --   -1.01341  -0.88247  -0.79764  -0.70633  -0.64909
 Alpha  occ. eigenvalues --   -0.62654  -0.61854  -0.58749  -0.56372  -0.54323
 Alpha  occ. eigenvalues --   -0.51310  -0.50167  -0.48035  -0.45446  -0.43783
 Alpha  occ. eigenvalues --   -0.39304  -0.38095  -0.37641  -0.34897
 Alpha virt. eigenvalues --    0.00341   0.02397   0.03386   0.03922   0.05025
 Alpha virt. eigenvalues --    0.05750   0.06365   0.07423   0.08537   0.09804
 Alpha virt. eigenvalues --    0.10720   0.11088   0.13373   0.14828   0.15021

  Beta  occ. eigenvalues --  -19.75042 -19.69429 -19.69405 -19.68074 -10.62468
  Beta  occ. eigenvalues --  -10.60990 -10.54970  -1.32349  -1.27332  -1.04255
  Beta  occ. eigenvalues --   -0.98312  -0.86925  -0.79532  -0.69537  -0.64412
  Beta  occ. eigenvalues --   -0.61249  -0.59047  -0.55929  -0.55735  -0.52989
  Beta  occ. eigenvalues --   -0.50045  -0.48955  -0.46399  -0.45019  -0.42682
  Beta  occ. eigenvalues --   -0.38714  -0.36169  -0.35130
  Beta virt. eigenvalues --   -0.07097   0.00350   0.02436   0.03405   0.03950
  Beta virt. eigenvalues --    0.05132   0.05789   0.06413   0.07534   0.08590
  Beta virt. eigenvalues --    0.09851   0.10746   0.11160   0.13554   0.15061

 Mulliken charges and spin densities:
               1          2
     1  O   -0.129688   0.003079
     2  O    0.067228   0.292133
     3  O   -0.230081   0.000554
     4  O   -0.189399   0.687590
     5  C   -0.090080  -0.008996
     6  C   -0.216049   0.009763
     7  C   -0.456812   0.013056
     8  H    0.173906   0.000687
     9  H    0.161306   0.003945
    10  H    0.171558  -0.000429
    11  H    0.166291   0.000023
    12  H    0.153186  -0.000999
    13  H    0.159154   0.001115
    14  H    0.259481  -0.001522
 Sum of Mulliken charges =   0.00000   1.00000

 Dipole moment (field-independent basis, Debye):
    X=              1.8688    Y=             -2.8691    Z=             -0.3959  Tot=              3.4468
 Quadrupole moment (field-independent basis, Debye-Ang):
   XX=            -46.5950   YY=            -41.8933   ZZ=            -38.8528
   XY=             -2.5213   XZ=              0.9221   YZ=              2.9016

  Exact polarizability:  52.745  -1.510  56.743  -0.727   4.278  56.198
 Approx polarizability:  59.222  -1.672  66.877  -3.515   6.490  69.579

                      1                      2                      3
                      A                      A                      A
 Frequencies --    108.1210               162.7760               197.8144
 Red. masses --      2.4301                 5.7016                 4.9533
 Frc consts  --      0.0167                 0.0890                 0.1142
 IR Inten    --      3.1205                 7.4348                 3.6448

                      4                      5                      6
                      A                      A                      A
 Frequencies --    211.5639               254.7941               324.3158
 Red. masses --      1.4283                 8.5411                 2.8160
 Frc consts  --      0.0377                 0.3267                 0.1745
 IR Inten    --      0.4780                 2.1331                 7.1638

                      7                      8                      9
                      A                      A                      A
 Frequencies --    358.9590               417.7702               461.0649
 Red. masses --      4.1871                 2.5048                 1.1140
 Frc consts  --      0.3179                 0.2576                 0.1395
 IR Inten    --      6.1508                 5.5374               162.5275

                     10                     11                     12
                      A                      A                      A
 Frequencies --    542.0045               749.4851               795.9671
 Red. masses --      4.1848                 2.5871                 4.8565
 Frc consts  --      0.7243                 0.8562                 1.8128
 IR Inten    --      7.7538                 5.7120                 7.7059

                     13                     14                     15
                      A                      A                      A
 Frequencies --    908.2562               945.8895               990.3747
 Red. masses --      2.9447                 1.6748                 3.5398
 Frc consts  --      1.4312                 0.8829                 2.0457
 IR Inten    --      5.7688                 5.5696                16.9902

                     16                     17                     18
                      A                      A                      A
 Frequencies --   1047.8039              1121.4568              1162.7189
 Red. masses --      2.0830                 1.9320                 2.8462
 Frc consts  --      1.3474                 1.4316                 2.2671
 IR Inten    --      7.1265                 6.9907                 9.8369

                     19                     20                     21
                      A                      A                      A
 Frequencies --   1198.4098              1264.9441              1319.1655
 Red. masses --      2.6580                 3.1161                 1.2870
 Frc consts  --      2.2491                 2.9377                 1.3196
 IR Inten    --      4.3578                 7.7926                 6.3526

                     22                     23                     24
                      A                      A                      A
 Frequencies --   1363.6788              1398.1102              1411.9939
 Red. masses --      1.5349                 1.3627                 1.4389
 Frc consts  --      1.6817                 1.5694                 1.6902
 IR Inten    --      2.0022                 1.0960                 6.2577

                     25                     26                     27
                      A                      A                      A
 Frequencies --   1424.7086              1450.7993              1474.2855
 Red. masses --      1.3201                 1.1449                 1.0862
 Frc consts  --      1.5787                 1.4198                 1.3910
 IR Inten    --     19.8547                57.5550                 2.8824

                     28                     29                     30
                      A                      A                      A
 Frequencies --   1493.0966              1502.6541              3055.4757
 Red. masses --      1.0504                 1.0569                 1.0630
 Frc consts  --      1.3797                 1.4061                 5.8474
 IR Inten    --      8.5651                 5.5424                21.2223

                     31                     32                     33
                      A                      A                      A
 Frequencies --   3087.0340              3095.3258              3124.9892
 Red. masses --      1.0429                 1.0823                 1.1006
 Frc consts  --      5.8557                 6.1094                 6.3326
 IR Inten    --      6.9298                11.9515                 8.0689

                     34                     35                     36
                      A                      A                      A
 Frequencies --   3152.9432              3200.5118              3776.4185
 Red. masses --      1.1026                 1.0984                 1.0672
 Frc consts  --      6.4580                 6.6291                 8.9669
 IR Inten    --      9.0921                 3.1803                71.5246

 - Thermochemistry -
 -------------------
 Temperature   298.150 Kelvin.  Pressure   1.00000 Atm.
 Atom     1 has atomic number  8 and mass  15.99491

 Molecular mass:   107.03443 amu.
 Principal axes and moments of inertia in atomic units:
                           1         2         3
     Eigenvalues --   525.36075 767.18973 861.14759
           X            0.99672  -0.07275   0.03551
           Y            0.07248   0.99733   0.00880
           Z           -0.03606  -0.00620   0.99933
 This molecule is an asymmetric top.
 Rotational symmetry number  1.
 Warning -- assumption of classical behavior for rotation
           may cause significant error
 Rotational temperatures (Kelvin)      0.16487     0.11290     0.10058
 Rotational constants (GHZ):           3.43524     2.35241     2.09574
 Zero-point vibrational energy     290427.5 (Joules/Mol)
                                   69.41383 (Kcal/Mol)
 Warning -- explicit consideration of  10 degrees of freedom as
           vibrations may cause significant error
 Vibrational temperatures:    155.56   234.20   284.61   304.39   366.59
          (Kelvin)            466.62   516.46   601.08   663.37   779.82
                             1078.34  1145.22  1306.78  1360.92  1424.93
                             1507.56  1613.53  1672.89  1724.24  1819.97
                             1897.98  1962.03  2011.57  2031.54  2049.84
                             2087.38  2121.17  2148.23  2161.98  4396.15
                             4441.55  4453.48  4496.16  4536.38  4604.82
                             5433.42

 Zero-point correction=                           0.110618 (Hartree/Particle)
 Thermal correction to Energy=                    0.118336
 Thermal correction to Enthalpy=                  0.119280
 Thermal correction to Gibbs Free Energy=         0.078326
 Sum of electronic and zero-point Energies=           -419.059023
 Sum of electronic and thermal Energies=              -419.051305
 Sum of electronic and thermal Enthalpies=            -419.050361
 Sum of electronic and thermal Free Energies=         -419.091315

                     E (Thermal)             CV                S
                      KCal/Mol        Cal/Mol-Kelvin    Cal/Mol-Kelvin
 Total                   74.257             27.113             86.195
 Electronic               0.000              0.000              1.377
 Translational            0.889              2.981             39.921
 Rotational               0.889              2.981             27.342
 Vibrational             72.480             21.152             17.555
 Vibration     1          0.606              1.943              3.302
 Vibration     2          0.623              1.888              2.517
 Vibration     3          0.637              1.843              2.153
 Vibration     4          0.643              1.823              2.030
 Vibration     5          0.665              1.755              1.697
 Vibration     6          0.709              1.627              1.288
 Vibration     7          0.734              1.557              1.127
 Vibration     8          0.781              1.432              0.900
 Vibration     9          0.819              1.336              0.763
 Vibration    10          0.897              1.157              0.561

                           ! Non-Optimized Parameters !
 Normal termination of Gaussian 16 at Thu Apr 18 15:33:33 2019.
