 Gaussian 16, Revision A.03,
 Gaussian 16:  EM64L-G16RevA.03 25-Dec-2016

 ----------------------------------------------------------------------
 #p m062x/6-311+g(2df,2p) opt=(calcfc,verytight,gdiis,maxcycles=900) fr
 eq iop(7/33=1,2/16=3)
 ----------------------------------------------------------------------

 -----------------------------------
 Gaussian input prepared by Avogadro
 -----------------------------------
 Symbolic Z-matrix:
 Charge =  0 Multiplicity = 2

 SCF Done:  E(UM062X) =  -419.158489127     A.U. after   20 cycles
 SCF Done:  E(UM062X) =  -419.172551616     A.U. after   17 cycles
 SCF Done:  E(UM062X) =  -419.151371424     A.U. after   20 cycles
 SCF Done:  E(UM062X) =  -419.162042824     A.U. after   19 cycles
 SCF Done:  E(UM062X) =  -419.165219869     A.U. after   18 cycles
 SCF Done:  E(UM062X) =  -419.165172407     A.U. after   15 cycles
 SCF Done:  E(UM062X) =  -419.165733630     A.U. after   16 cycles
 SCF Done:  E(UM062X) =  -419.165998378     A.U. after   16 cycles
 SCF Done:  E(UM062X) =  -419.167203324     A.U. after   19 cycles
 SCF Done:  E(UM062X) =  -419.163132538     A.U. after   19 cycles
 SCF Done:  E(UM062X) =  -419.170882532     A.U. after    5 cycles
 SCF Done:  E(UM062X) =  -419.170882532     A.U. after    2 cycles
 SCF Done:  E(UM062X) =  -419.170882532     A.U. after    2 cycles
 SCF Done:  E(UM062X) =  -419.170882533     A.U. after    2 cycles
 SCF Done:  E(UM062X) =  -419.170882531     A.U. after    4 cycles
 SCF Done:  E(UM062X) =  -419.170882532     A.U. after    3 cycles
 SCF Done:  E(UM062X) =  -419.170882532     A.U. after    2 cycles
 SCF Done:  E(UM062X) =  -419.170882532     A.U. after    3 cycles
 SCF Done:  E(UM062X) =  -419.170882532     A.U. after    3 cycles
 Optimization completed.
    -- Stationary point found.
 Normal termination of Gaussian 16 at Thu Apr 18 16:35:11 2019.

 ----------------------------------------------------------------------
 #P Geom=AllCheck Guess=TCheck SCRF=Check Test GenChk UM062X/6-311+G(2d
 f,2p) Freq
 ----------------------------------------------------------------------

 Structure from the checkpoint file:  "/scratch/underkoffler.c/gaussian_scratch/Gau-32047.chk"
 -----------------------------------
 Gaussian input prepared by Avogadro
 -----------------------------------
 Charge =  0 Multiplicity = 2

                         Standard orientation:
 ---------------------------------------------------------------------
 Center     Atomic      Atomic             Coordinates (Angstroms)
 Number     Number       Type             X           Y           Z
 ---------------------------------------------------------------------
      1          8           0       -1.619201    0.387662   -0.539536
      2          8           0        0.915285    0.875824    0.665577
      3          8           0       -2.359175   -0.189384    0.529932
      4          8           0        1.500980    1.443209   -0.339784
      5          6           0        0.484175   -0.478323    0.359426
      6          6           0       -0.516452   -0.450766   -0.778798
      7          6           0        1.680538   -1.352330    0.049895
      8          1           0       -0.853043   -1.470137   -0.985663
      9          1           0       -0.050986   -0.033921   -1.672232
     10          1           0       -2.408331    0.552753    1.143114
     11          1           0        1.358442   -2.383338   -0.088678
     12          1           0        2.396143   -1.320373    0.868896
     13          1           0        2.171993   -1.010838   -0.859622
     14          1           0       -0.006900   -0.784113    1.281530
 ---------------------------------------------------------------------

 SCF Done:  E(UM062X) =  -419.170882532     A.U. after    1 cycles

 The electronic state is 2-A.
 Alpha  occ. eigenvalues --  -19.74968 -19.69793 -19.69735 -19.69227 -10.61515
 Alpha  occ. eigenvalues --  -10.60485 -10.54980  -1.34667  -1.27796  -1.05013
 Alpha  occ. eigenvalues --   -1.00614  -0.88175  -0.79126  -0.70206  -0.64505
 Alpha  occ. eigenvalues --   -0.62071  -0.61222  -0.59315  -0.56914  -0.54240
 Alpha  occ. eigenvalues --   -0.50813  -0.48752  -0.47614  -0.45963  -0.43630
 Alpha  occ. eigenvalues --   -0.41289  -0.37210  -0.36726  -0.34750
 Alpha virt. eigenvalues --    0.00745   0.02101   0.03043   0.04208   0.05419
 Alpha virt. eigenvalues --    0.05983   0.06514   0.07095   0.08197   0.09100
 Alpha virt. eigenvalues --    0.11142   0.11872   0.13217   0.15184   0.16646

  Beta  occ. eigenvalues --  -19.74124 -19.69735 -19.69227 -19.68401 -10.61541
  Beta  occ. eigenvalues --  -10.60470 -10.54965  -1.31449  -1.27768  -1.04888
  Beta  occ. eigenvalues --   -0.97462  -0.86782  -0.78949  -0.69154  -0.64236
  Beta  occ. eigenvalues --   -0.60863  -0.59214  -0.57067  -0.54712  -0.52181
  Beta  occ. eigenvalues --   -0.49876  -0.48451  -0.46687  -0.43618  -0.43137
  Beta  occ. eigenvalues --   -0.41239  -0.35413  -0.34251
  Beta virt. eigenvalues --   -0.06204   0.00757   0.02132   0.03081   0.04251
  Beta virt. eigenvalues --    0.05432   0.06019   0.06650   0.07218   0.08229
  Beta virt. eigenvalues --    0.09139   0.11207   0.11970   0.13388   0.15523

 Mulliken charges and spin densities:
               1          2
     1  O   -0.152491   0.000229
     2  O    0.073640   0.286431
     3  O   -0.249047   0.000215
     4  O   -0.203956   0.694882
     5  C   -0.042491  -0.001947
     6  C   -0.304045   0.009834
     7  C   -0.447349   0.012278
     8  H    0.176921  -0.000839
     9  H    0.203982   0.000729
    10  H    0.273600  -0.000090
    11  H    0.147748  -0.000896
    12  H    0.155308   0.000646
    13  H    0.176013   0.000106
    14  H    0.192165  -0.001578
 Sum of Mulliken charges =  -0.00000   1.00000

 Dipole moment (field-independent basis, Debye):
    X=              0.2585    Y=             -2.3844    Z=              0.9493  Tot=              2.5795
 Quadrupole moment (field-independent basis, Debye-Ang):
   XX=            -45.2251   YY=            -42.9959   ZZ=            -38.8294
   XY=             -5.5152   XZ=             -2.9457   YZ=              1.7727

  Exact polarizability:  59.673   0.961  55.500  -5.002  -1.915  52.042
 Approx polarizability:  62.709   3.685  64.358  -7.856  -4.224  66.383

                      1                      2                      3
                      A                      A                      A
 Frequencies --     31.1611               117.4239               169.2570
 Red. masses --      5.3272                 8.5895                 3.4771
 Frc consts  --      0.0030                 0.0698                 0.0587
 IR Inten    --      5.8484                 1.6870                 1.3184

                      4                      5                      6
                      A                      A                      A
 Frequencies --    208.7652               221.1785               235.4017
 Red. masses --      1.0875                 1.2711                 3.5775
 Frc consts  --      0.0279                 0.0366                 0.1168
 IR Inten    --      0.1064               106.6159                32.9830

                      7                      8                      9
                      A                      A                      A
 Frequencies --    327.5640               341.3875               435.4035
 Red. masses --      3.5524                 3.7072                 2.4740
 Frc consts  --      0.2246                 0.2546                 0.2763
 IR Inten    --      6.6956                 4.3690                12.4960

                     10                     11                     12
                      A                      A                      A
 Frequencies --    574.6803               638.2957               827.6650
 Red. masses --      3.7699                 3.2938                 4.4359
 Frc consts  --      0.7336                 0.7907                 1.7904
 IR Inten    --      5.1336                 5.4782                11.5214

                     13                     14                     15
                      A                      A                      A
 Frequencies --    913.6826               937.0422               984.1619
 Red. masses --      1.7437                 1.7809                 3.1143
 Frc consts  --      0.8577                 0.9213                 1.7772
 IR Inten    --      4.4858                 1.1433                20.5986

                     16                     17                     18
                      A                      A                      A
 Frequencies --   1083.5309              1135.3280              1146.2814
 Red. masses --      2.7320                 4.1934                 2.0009
 Frc consts  --      1.8898                 3.1846                 1.5490
 IR Inten    --     16.2751                20.0318                 7.0162

                     19                     20                     21
                      A                      A                      A
 Frequencies --   1190.7733              1263.0177              1308.6801
 Red. masses --      2.4235                 3.3696                 1.3771
 Frc consts  --      2.0247                 3.1670                 1.3896
 IR Inten    --      1.4560                 8.0637                13.7593

                     22                     23                     24
                      A                      A                      A
 Frequencies --   1329.9462              1406.1492              1412.1196
 Red. masses --      1.2370                 1.3389                 1.3125
 Frc consts  --      1.2891                 1.5597                 1.5420
 IR Inten    --      6.0152                 4.0008                 4.6076

                     25                     26                     27
                      A                      A                      A
 Frequencies --   1419.2447              1431.8303              1468.1841
 Red. masses --      1.4019                 1.3419                 1.0902
 Frc consts  --      1.6637                 1.6209                 1.3846
 IR Inten    --      6.8872                72.5370                 2.6261

                     28                     29                     30
                      A                      A                      A
 Frequencies --   1491.5409              1507.6797              3063.7269
 Red. masses --      1.0527                 1.0579                 1.0628
 Frc consts  --      1.3798                 1.4168                 5.8775
 IR Inten    --      8.6498                 4.9279                17.6574

                     31                     32                     33
                      A                      A                      A
 Frequencies --   3079.3718              3124.4927              3138.5961
 Red. masses --      1.0352                 1.0898                 1.0984
 Frc consts  --      5.7836                 6.2683                 6.3751
 IR Inten    --      9.7716                 1.8140                 1.1685

                     34                     35                     36
                      A                      A                      A
 Frequencies --   3156.7511              3162.2931              3850.1611
 Red. masses --      1.1021                 1.1029                 1.0682
 Frc consts  --      6.4710                 6.4981                 9.3298
 IR Inten    --      7.6775                 7.3661                68.9363

 - Thermochemistry -
 -------------------
 Temperature   298.150 Kelvin.  Pressure   1.00000 Atm.
 Atom     1 has atomic number  8 and mass  15.99491

 Molecular mass:   107.03443 amu.
 Principal axes and moments of inertia in atomic units:
                           1         2         3
     Eigenvalues --   434.36888 981.728661164.83532
           X            0.99834  -0.05684  -0.00947
           Y            0.05704   0.99812   0.02236
           Z            0.00818  -0.02286   0.99971
 This molecule is an asymmetric top.
 Rotational symmetry number  1.
 Warning -- assumption of classical behavior for rotation
           may cause significant error
 Rotational temperatures (Kelvin)      0.19940     0.08823     0.07436
 Rotational constants (GHZ):           4.15486     1.83833     1.54935
 Zero-point vibrational energy     287897.9 (Joules/Mol)
                                   68.80925 (Kcal/Mol)
 Warning -- explicit consideration of  10 degrees of freedom as
           vibrations may cause significant error
 Vibrational temperatures:     44.83   168.95   243.52   300.37   318.23
          (Kelvin)            338.69   471.29   491.18   626.45   826.84
                              918.37  1190.83  1314.59  1348.19  1415.99
                             1558.96  1633.48  1649.24  1713.26  1817.20
                             1882.90  1913.50  2023.14  2031.73  2041.98
                             2060.08  2112.39  2145.99  2169.21  4408.02
                             4430.53  4495.45  4515.74  4541.86  4549.83
                             5539.52

 Zero-point correction=                           0.109655 (Hartree/Particle)
 Thermal correction to Energy=                    0.117977
 Thermal correction to Enthalpy=                  0.118921
 Thermal correction to Gibbs Free Energy=         0.075532
 Sum of electronic and zero-point Energies=           -419.061228
 Sum of electronic and thermal Energies=              -419.052905
 Sum of electronic and thermal Enthalpies=            -419.051961
 Sum of electronic and thermal Free Energies=         -419.095350

                     E (Thermal)             CV                S
                      KCal/Mol        Cal/Mol-Kelvin    Cal/Mol-Kelvin
 Total                   74.032             27.839             91.320
 Electronic               0.000              0.000              1.377
 Translational            0.889              2.981             39.921
 Rotational               0.889              2.981             27.698
 Vibrational             72.254             21.877             22.324
 Vibration     1          0.594              1.983              5.754
 Vibration     2          0.608              1.935              3.142
 Vibration     3          0.625              1.880              2.444
 Vibration     4          0.642              1.827              2.054
 Vibration     5          0.648              1.809              1.949
 Vibration     6          0.655              1.787              1.837
 Vibration     7          0.711              1.620              1.272
 Vibration     8          0.721              1.593              1.206
 Vibration     9          0.796              1.393              0.841
 Vibration    10          0.931              1.086              0.495

                           ! Non-Optimized Parameters !
 Normal termination of Gaussian 16 at Thu Apr 18 16:43:05 2019.
