 Gaussian 16, Revision A.03,
 Gaussian 16:  EM64L-G16RevA.03 25-Dec-2016

 ----------------------------------------------------------------------
 #p m062x/6-311+g(2df,2p) opt=(calcfc,verytight,gdiis,maxcycles=900) fr
 eq iop(7/33=1,2/16=3)
 ----------------------------------------------------------------------

 ------------------------------
 Gaussian input prepared by ASE
 ------------------------------
 Symbolic Z-matrix:
 Charge =  0 Multiplicity = 2

 SCF Done:  E(UM062X) =  -232.951431613     A.U. after   14 cycles
 SCF Done:  E(UM062X) =  -232.960277037     A.U. after   13 cycles
 SCF Done:  E(UM062X) =  -232.961513720     A.U. after   14 cycles
 SCF Done:  E(UM062X) =  -232.962446085     A.U. after   12 cycles
 SCF Done:  E(UM062X) =  -232.962542500     A.U. after   11 cycles
 SCF Done:  E(UM062X) =  -232.962569544     A.U. after   10 cycles
 SCF Done:  E(UM062X) =  -232.962574309     A.U. after   10 cycles
 SCF Done:  E(UM062X) =  -232.962574799     A.U. after    8 cycles
 SCF Done:  E(UM062X) =  -232.962574891     A.U. after    8 cycles
 SCF Done:  E(UM062X) =  -232.962574917     A.U. after    8 cycles
 SCF Done:  E(UM062X) =  -232.962574926     A.U. after    7 cycles
 SCF Done:  E(UM062X) =  -232.962574926     A.U. after    5 cycles
 SCF Done:  E(UM062X) =  -232.962574926     A.U. after    4 cycles
 Optimization completed.
    -- Stationary point found.
 Normal termination of Gaussian 16 at Tue Apr  9 01:54:12 2019.

 ----------------------------------------------------------------------
 #P Geom=AllCheck Guess=TCheck SCRF=Check Test GenChk UM062X/6-311+G(2d
 f,2p) Freq
 ----------------------------------------------------------------------

 Structure from the checkpoint file:  "/scratch/underkoffler.c/gaussian_scratch/Gau-14200.chk"
 ------------------------------
 Gaussian input prepared by ASE
 ------------------------------
 Charge =  0 Multiplicity = 2

                         Standard orientation:
 ---------------------------------------------------------------------
 Center     Atomic      Atomic             Coordinates (Angstroms)
 Number     Number       Type             X           Y           Z
 ---------------------------------------------------------------------
      1          8           0       -0.929800   -0.021794   -0.655261
      2          6           0        0.487507    0.011531   -0.468351
      3          6           0        0.989420   -1.248082    0.221504
      4          6           0        0.919275    1.284101    0.242720
      5          6           0       -1.702783    0.019874    0.447821
      6          1           0        0.869411    0.026937   -1.489057
      7          1           0        0.601641   -2.134904   -0.277338
      8          1           0        2.078053   -1.275270    0.184039
      9          1           0        0.693252   -1.278789    1.269823
     10          1           0        0.580039    1.288128    1.278467
     11          1           0        0.505252    2.157385   -0.258769
     12          1           0        2.006357    1.359035    0.238813
     13          1           0       -2.757481   -0.057255    0.241261
     14          1           0       -1.298640   -0.315455    1.392681
 ---------------------------------------------------------------------

 SCF Done:  E(UM062X) =  -232.962574926     A.U. after    1 cycles

 The electronic state is 2-A.
 Alpha  occ. eigenvalues --  -19.64939 -10.59652 -10.57151 -10.53075 -10.52837
 Alpha  occ. eigenvalues --   -1.18879  -0.89272  -0.79115  -0.77286  -0.65351
 Alpha  occ. eigenvalues --   -0.59282  -0.55227  -0.53308  -0.49782  -0.47661
 Alpha  occ. eigenvalues --   -0.46481  -0.44166  -0.42708  -0.39910  -0.38088
 Alpha  occ. eigenvalues --   -0.22566
 Alpha virt. eigenvalues --    0.01466   0.03216   0.03517   0.03790   0.06219
 Alpha virt. eigenvalues --    0.06687   0.07209   0.07348   0.08325   0.09844
 Alpha virt. eigenvalues --    0.10806   0.11488   0.12597   0.13075   0.14653

  Beta  occ. eigenvalues --  -19.64493 -10.59662 -10.56457 -10.53068 -10.52828
  Beta  occ. eigenvalues --   -1.17467  -0.88992  -0.79046  -0.75237  -0.63935
  Beta  occ. eigenvalues --   -0.58737  -0.54514  -0.51320  -0.49240  -0.47268
  Beta  occ. eigenvalues --   -0.46222  -0.43090  -0.42427  -0.38192  -0.37079
  Beta virt. eigenvalues --   -0.00362   0.01332   0.02906   0.03678   0.03767
  Beta virt. eigenvalues --    0.06187   0.06724   0.07202   0.07393   0.08544
  Beta virt. eigenvalues --    0.09411   0.10933   0.11493   0.12211   0.13053

 Mulliken charges and spin densities:
               1          2
     1  O   -0.048179   0.064003
     2  C   -0.221938   0.039473
     3  C   -0.391137  -0.001649
     4  C   -0.369199   0.006567
     5  C   -0.348478   0.980257
     6  H    0.162746  -0.001102
     7  H    0.157650  -0.000360
     8  H    0.144098  -0.001161
     9  H    0.145089   0.000022
    10  H    0.149687  -0.003954
    11  H    0.159093  -0.003315
    12  H    0.140477  -0.001652
    13  H    0.163783  -0.035475
    14  H    0.156308  -0.041655
 Sum of Mulliken charges =  -0.00000   1.00000

 Dipole moment (field-independent basis, Debye):
    X=              1.4369    Y=             -0.3159    Z=              0.6383  Tot=              1.6037
 Quadrupole moment (field-independent basis, Debye-Ang):
   XX=            -32.2052   YY=            -33.7344   ZZ=            -33.2295
   XY=              0.5723   XZ=             -1.4758   YZ=             -0.5277

  Exact polarizability:  60.147  -0.293  54.408  -2.627   0.199  48.868
 Approx polarizability:  63.638  -0.110  58.337  -1.998   0.054  60.227

                      1                      2                      3
                      A                      A                      A
 Frequencies --     98.4337               220.8176               236.0625
 Red. masses --      1.8277                 1.0531                 1.3910
 Frc consts  --      0.0104                 0.0303                 0.0457
 IR Inten    --      2.3413                 2.9686                 0.9635

                      4                      5                      6
                      A                      A                      A
 Frequencies --    251.0779               318.4824               377.8317
 Red. masses --      1.0489                 2.5421                 2.2368
 Frc consts  --      0.0390                 0.1519                 0.1881
 IR Inten    --      0.0313                 0.3197                 0.7738

                      7                      8                      9
                      A                      A                      A
 Frequencies --    435.6202               555.1862               572.5812
 Red. masses --      3.1168                 1.7546                 1.4998
 Frc consts  --      0.3485                 0.3187                 0.2897
 IR Inten    --      9.9850                17.9332                27.4329

                     10                     11                     12
                      A                      A                      A
 Frequencies --    809.0573               931.2047               944.6880
 Red. masses --      2.8401                 1.2018                 1.8237
 Frc consts  --      1.0953                 0.6140                 0.9589
 IR Inten    --      7.3770                 0.2441                 9.7495

                     13                     14                     15
                      A                      A                      A
 Frequencies --    945.5238              1142.5187              1158.8867
 Red. masses --      1.5979                 1.8056                 2.1242
 Frc consts  --      0.8417                 1.3887                 1.6809
 IR Inten    --      5.4408                10.5629                13.6813

                     16                     17                     18
                      A                      A                      A
 Frequencies --   1181.4836              1222.0982              1293.6619
 Red. masses --      1.5839                 1.7995                 3.9023
 Frc consts  --      1.3027                 1.5835                 3.8478
 IR Inten    --      5.3826                15.9826               209.9283

                     19                     20                     21
                      A                      A                      A
 Frequencies --   1373.5377              1405.4484              1410.3666
 Red. masses --      1.3037                 1.3816                 1.2361
 Frc consts  --      1.4492                 1.6080                 1.4487
 IR Inten    --      1.3439                22.1330                 9.1978

                     22                     23                     24
                      A                      A                      A
 Frequencies --   1426.0578              1484.4421              1487.4877
 Red. masses --      1.2692                 1.1088                 1.0614
 Frc consts  --      1.5207                 1.4395                 1.3837
 IR Inten    --     20.8777                 7.8951                 3.0212

                     25                     26                     27
                      A                      A                      A
 Frequencies --   1490.2994              1509.2688              1516.1495
 Red. masses --      1.0558                 1.0671                 1.1322
 Frc consts  --      1.3816                 1.4322                 1.5334
 IR Inten    --      0.1367                 5.5585                 6.7198

                     28                     29                     30
                      A                      A                      A
 Frequencies --   3069.3813              3072.2423              3093.0639
 Red. masses --      1.0346                 1.0357                 1.0863
 Frc consts  --      5.7426                 5.7597                 6.1231
 IR Inten    --     10.7952                 6.8983                12.8898

                     31                     32                     33
                      A                      A                      A
 Frequencies --   3139.5838              3146.9004              3150.0291
 Red. masses --      1.1016                 1.0985                 1.1021
 Frc consts  --      6.3976                 6.4091                 6.4434
 IR Inten    --      0.5815                29.6216                12.8359

                     34                     35                     36
                      A                      A                      A
 Frequencies --   3151.0029              3161.1770              3292.2545
 Red. masses --      1.0999                 1.0536                 1.1228
 Frc consts  --      6.4342                 6.2034                 7.1702
 IR Inten    --     12.8602                30.2798                 8.1675

 - Thermochemistry -
 -------------------
 Temperature   298.150 Kelvin.  Pressure   1.00000 Atm.
 Atom     1 has atomic number  8 and mass  15.99491

 Molecular mass:    73.06534 amu.
 Principal axes and moments of inertia in atomic units:
                           1         2         3
     Eigenvalues --   269.75832 407.33439 528.27407
           X            0.99977   0.00794  -0.02013
           Y           -0.00815   0.99991  -0.01058
           Z            0.02004   0.01074   0.99974
 This molecule is an asymmetric top.
 Rotational symmetry number  1.
 Rotational temperatures (Kelvin)      0.32108     0.21264     0.16396
 Rotational constants (GHZ):           6.69022     4.43061     3.41630
 Zero-point vibrational energy     323433.8 (Joules/Mol)
                                   77.30253 (Kcal/Mol)
 Warning -- explicit consideration of   9 degrees of freedom as
           vibrations may cause significant error
 Vibrational temperatures:    141.62   317.71   339.64   361.25   458.23
          (Kelvin)            543.62   626.76   798.79   823.82  1164.05
                             1339.80  1359.20  1360.40  1643.83  1667.38
                             1699.89  1758.33  1861.29  1976.21  2022.13
                             2029.20  2051.78  2135.78  2140.16  2144.21
                             2171.50  2181.40  4416.16  4420.27  4450.23
                             4517.16  4527.69  4532.19  4533.59  4548.23
                             4736.82

 Zero-point correction=                           0.123189 (Hartree/Particle)
 Thermal correction to Energy=                    0.130002
 Thermal correction to Enthalpy=                  0.130946
 Thermal correction to Gibbs Free Energy=         0.093004
 Sum of electronic and zero-point Energies=           -232.839385
 Sum of electronic and thermal Energies=              -232.832573
 Sum of electronic and thermal Enthalpies=            -232.831629
 Sum of electronic and thermal Free Energies=         -232.869571

                     E (Thermal)             CV                S
                      KCal/Mol        Cal/Mol-Kelvin    Cal/Mol-Kelvin
 Total                   81.577             23.848             79.856
 Electronic               0.000              0.000              1.377
 Translational            0.889              2.981             38.783
 Rotational               0.889              2.981             25.565
 Vibrational             79.800             17.887             14.131
 Vibration     1          0.604              1.950              3.485
 Vibration     2          0.648              1.809              1.952
 Vibration     3          0.655              1.786              1.832
 Vibration     4          0.663              1.761              1.723
 Vibration     5          0.705              1.638              1.318
 Vibration     6          0.748              1.517              1.048
 Vibration     7          0.796              1.393              0.840
 Vibration     8          0.911              1.128              0.534
 Vibration     9          0.929              1.091              0.499

 Optimization completed.
    -- Stationary point found.
 Normal termination of Gaussian 16 at Tue Apr  9 01:59:45 2019.
