 Gaussian 16, Revision A.03,
 Gaussian 16:  EM64L-G16RevA.03 25-Dec-2016

 ----------------------------------------------
 #p m062x/6-311+g(2df,2p) Opt=(CalcFC,ModRedun)
 ----------------------------------------------

 ----------------------------------------
 Gaussian Input Prepared from Scan Object
 ----------------------------------------
 Symbolic Z-matrix:
 Charge =  0 Multiplicity = 2

 SCF Done:  E(UM062X) =  -232.965196238     A.U. after   14 cycles

  Exact polarizability:   0.000   0.000   0.000   0.000   0.000   0.000
 Approx polarizability:  64.422   0.014  58.758   0.071   0.672  59.548

 Optimization completed.
    -- Stationary point found.
 SCF Done:  E(UM062X) =  -232.963766345     A.U. after   11 cycles
 SCF Done:  E(UM062X) =  -232.964892824     A.U. after   11 cycles
 SCF Done:  E(UM062X) =  -232.964912519     A.U. after    9 cycles
 Optimization completed.
 SCF Done:  E(UM062X) =  -232.962923845     A.U. after   11 cycles
 SCF Done:  E(UM062X) =  -232.964079829     A.U. after   11 cycles
 SCF Done:  E(UM062X) =  -232.964105830     A.U. after    9 cycles
 SCF Done:  E(UM062X) =  -232.964105920     A.U. after    7 cycles
 SCF Done:  E(UM062X) =  -232.961648918     A.U. after   12 cycles
 SCF Done:  E(UM062X) =  -232.962887300     A.U. after   11 cycles
 SCF Done:  E(UM062X) =  -232.962719233     A.U. after   11 cycles
 SCF Done:  E(UM062X) =  -232.964068573     A.U. after   11 cycles
 SCF Done:  E(UM062X) =  -232.964082284     A.U. after    9 cycles
 SCF Done:  E(UM062X) =  -232.964082305     A.U. after    7 cycles
 SCF Done:  E(UM062X) =  -232.963673601     A.U. after   10 cycles
 SCF Done:  E(UM062X) =  -232.964892531     A.U. after   11 cycles
 SCF Done:  E(UM062X) =  -232.964905047     A.U. after    9 cycles
    -- Stationary point found.
 SCF Done:  E(UM062X) =  -232.964035390     A.U. after   11 cycles
 SCF Done:  E(UM062X) =  -232.965181057     A.U. after   11 cycles
 SCF Done:  E(UM062X) =  -232.965196176     A.U. after    9 cycles
 Optimization completed.
    -- Stationary point found.

                         Standard orientation:
 ---------------------------------------------------------------------
 Center     Atomic      Atomic             Coordinates (Angstroms)
 Number     Number       Type             X           Y           Z
 ---------------------------------------------------------------------
      1          8           0        0.766119   -0.549798   -0.335431
      2          6           0       -0.372373    0.002665    0.323046
      3          6           0       -0.600547    1.434303   -0.132174
      4          6           0       -1.542728   -0.902172    0.001053
      5          6           0        1.962318   -0.087859    0.076595
      6          1           0       -0.175873   -0.014738    1.401726
      7          1           0        0.270915    2.052395    0.078934
      8          1           0       -1.463332    1.860559    0.378984
      9          1           0       -0.785945    1.453331   -1.206521
     10          1           0       -2.445093   -0.542255    0.493711
     11          1           0       -1.715306   -0.913075   -1.075188
     12          1           0       -1.343653   -1.920104    0.330692
     13          1           0        2.044652    0.277566    1.093593
     14          1           0        2.804661   -0.536914   -0.423604
 ---------------------------------------------------------------------

 The electronic state is 2-A.
 Alpha  occ. eigenvalues --  -19.65167 -10.59643 -10.57372 -10.52743 -10.52699
 Alpha  occ. eigenvalues --   -1.19241  -0.89547  -0.79167  -0.75656  -0.67270
 Alpha  occ. eigenvalues --   -0.57917  -0.55713  -0.54384  -0.49708  -0.46290
 Alpha  occ. eigenvalues --   -0.45778  -0.44412  -0.42242  -0.40124  -0.38856
 Alpha  occ. eigenvalues --   -0.22852
 Alpha virt. eigenvalues --    0.01819   0.03467   0.03655   0.03926   0.05868
 Alpha virt. eigenvalues --    0.06589   0.07257   0.07655   0.08313   0.10055
 Alpha virt. eigenvalues --    0.10606   0.11776   0.12702   0.13169   0.13833

  Beta  occ. eigenvalues --  -19.64729 -10.59651 -10.56675 -10.52743 -10.52688
  Beta  occ. eigenvalues --   -1.17846  -0.89229  -0.78986  -0.73521  -0.66409
  Beta  occ. eigenvalues --   -0.56862  -0.55068  -0.52730  -0.48827  -0.46118
  Beta  occ. eigenvalues --   -0.45522  -0.43223  -0.41854  -0.39231  -0.37220
  Beta virt. eigenvalues --   -0.00643   0.01610   0.03203   0.03781   0.04086
  Beta virt. eigenvalues --    0.05973   0.06641   0.07269   0.07668   0.08497
  Beta virt. eigenvalues --    0.09544   0.10601   0.11993   0.12725   0.13100

 Mulliken charges and spin densities:
               1          2
     1  O   -0.046375   0.062470
     2  C   -0.271585   0.040099
     3  C   -0.326992   0.002343
     4  C   -0.420320  -0.000308
     5  C   -0.313602   0.986770
     6  H    0.163534  -0.001210
     7  H    0.145299  -0.009999
     8  H    0.142534  -0.001757
     9  H    0.161683  -0.000439
    10  H    0.141365  -0.000343
    11  H    0.161351  -0.000427
    12  H    0.150345  -0.000623
    13  H    0.148339  -0.041284
    14  H    0.164423  -0.035291
 Sum of Mulliken charges =  -0.00000   1.00000

 Dipole moment (field-independent basis, Debye):
    X=             -0.9010    Y=              0.4770    Z=              0.9915  Tot=              1.4221
 Quadrupole moment (field-independent basis, Debye-Ang):
   XX=            -31.7167   YY=            -34.0866   ZZ=            -32.8298
   XY=             -0.2397   XZ=              0.5337   YZ=              0.1619

 Normal termination of Gaussian 16 at Tue Mar 12 03:21:14 2019.
