 Gaussian 16, Revision A.03,
 Gaussian 16:  EM64L-G16RevA.03 25-Dec-2016

 ----------------------------------------------
 #p m062x/6-311+g(2df,2p) Opt=(CalcFC,ModRedun)
 ----------------------------------------------

 ----------------------------------------
 Gaussian Input Prepared from Scan Object
 ----------------------------------------
 Symbolic Z-matrix:
 Charge =  0 Multiplicity = 2

 SCF Done:  E(UM062X) =  -232.965196238     A.U. after   14 cycles

  Exact polarizability:   0.000   0.000   0.000   0.000   0.000   0.000
 Approx polarizability:  64.422   0.014  58.758   0.071   0.672  59.548

 Optimization completed.
    -- Stationary point found.
 SCF Done:  E(UM062X) =  -232.949320876     A.U. after   11 cycles
 SCF Done:  E(UM062X) =  -232.959950732     A.U. after   12 cycles
 SCF Done:  E(UM062X) =  -232.962846937     A.U. after   11 cycles
 SCF Done:  E(UM062X) =  -232.962939187     A.U. after   11 cycles
 SCF Done:  E(UM062X) =  -232.962940090     A.U. after    9 cycles
 Optimization completed.
 SCF Done:  E(UM062X) =  -232.943601971     A.U. after   12 cycles
 SCF Done:  E(UM062X) =  -232.955534973     A.U. after   13 cycles
 SCF Done:  E(UM062X) =  -232.960218302     A.U. after   12 cycles
 SCF Done:  E(UM062X) =  -232.960382472     A.U. after   12 cycles
 SCF Done:  E(UM062X) =  -232.958369089     A.U. after   11 cycles
 SCF Done:  E(UM062X) =  -232.962987696     A.U. after   12 cycles
 SCF Done:  E(UM062X) =  -232.963059016     A.U. after   10 cycles
 SCF Done:  E(UM062X) =  -232.963060200     A.U. after    8 cycles
    -- Stationary point found.
 SCF Done:  E(UM062X) =  -232.950837902     A.U. after   11 cycles
 SCF Done:  E(UM062X) =  -232.962443345     A.U. after   11 cycles
 SCF Done:  E(UM062X) =  -232.965121576     A.U. after   12 cycles
 SCF Done:  E(UM062X) =  -232.965191004     A.U. after   11 cycles
 SCF Done:  E(UM062X) =  -232.965196093     A.U. after    9 cycles
 SCF Done:  E(UM062X) =  -232.965196236     A.U. after    7 cycles
 Optimization completed.
    -- Stationary point found.

                         Standard orientation:
 ---------------------------------------------------------------------
 Center     Atomic      Atomic             Coordinates (Angstroms)
 Number     Number       Type             X           Y           Z
 ---------------------------------------------------------------------
      1          8           0        0.766034   -0.549958   -0.335315
      2          6           0       -0.372451    0.002629    0.323362
      3          6           0       -0.600164    1.434206   -0.132216
      4          6           0       -1.543043   -0.901745    0.000958
      5          6           0        1.962302   -0.088032    0.076504
      6          1           0       -0.175695   -0.014868    1.401996
      7          1           0        0.271130    2.052296    0.079600
      8          1           0       -1.463485    1.860678    0.377832
      9          1           0       -0.784330    1.452837   -1.206779
     10          1           0       -2.445275   -0.541707    0.493663
     11          1           0       -1.715397   -0.912410   -1.075351
     12          1           0       -1.344454   -1.919915    0.330278
     13          1           0        2.044807    0.277481    1.093459
     14          1           0        2.804569   -0.537080   -0.423831
 ---------------------------------------------------------------------

 The electronic state is 2-A.
 Alpha  occ. eigenvalues --  -19.65166 -10.59644 -10.57371 -10.52744 -10.52698
 Alpha  occ. eigenvalues --   -1.19238  -0.89547  -0.79166  -0.75654  -0.67271
 Alpha  occ. eigenvalues --   -0.57916  -0.55713  -0.54382  -0.49708  -0.46289
 Alpha  occ. eigenvalues --   -0.45780  -0.44411  -0.42241  -0.40123  -0.38860
 Alpha  occ. eigenvalues --   -0.22851
 Alpha virt. eigenvalues --    0.01819   0.03467   0.03655   0.03926   0.05868
 Alpha virt. eigenvalues --    0.06590   0.07257   0.07655   0.08314   0.10053
 Alpha virt. eigenvalues --    0.10606   0.11776   0.12701   0.13169   0.13832

  Beta  occ. eigenvalues --  -19.64727 -10.59652 -10.56674 -10.52744 -10.52687
  Beta  occ. eigenvalues --   -1.17842  -0.89230  -0.78985  -0.73519  -0.66410
  Beta  occ. eigenvalues --   -0.56861  -0.55068  -0.52729  -0.48827  -0.46117
  Beta  occ. eigenvalues --   -0.45525  -0.43221  -0.41854  -0.39231  -0.37221
  Beta virt. eigenvalues --   -0.00642   0.01611   0.03203   0.03781   0.04086
  Beta virt. eigenvalues --    0.05973   0.06642   0.07269   0.07668   0.08497
  Beta virt. eigenvalues --    0.09543   0.10600   0.11992   0.12726   0.13098

 Mulliken charges and spin densities:
               1          2
     1  O   -0.046410   0.062481
     2  C   -0.271589   0.040142
     3  C   -0.326945   0.002311
     4  C   -0.420337  -0.000317
     5  C   -0.313611   0.986765
     6  H    0.163520  -0.001210
     7  H    0.145297  -0.009993
     8  H    0.142498  -0.001758
     9  H    0.161755  -0.000441
    10  H    0.141383  -0.000344
    11  H    0.161345  -0.000427
    12  H    0.150341  -0.000625
    13  H    0.148329  -0.041288
    14  H    0.164423  -0.035295
 Sum of Mulliken charges =  -0.00000   1.00000

 Dipole moment (field-independent basis, Debye):
    X=             -0.9014    Y=              0.4772    Z=              0.9914  Tot=              1.4224
 Quadrupole moment (field-independent basis, Debye-Ang):
   XX=            -31.7167   YY=            -34.0873   ZZ=            -32.8290
   XY=             -0.2389   XZ=              0.5334   YZ=              0.1624

 Normal termination of Gaussian 16 at Fri Mar 29 16:50:38 2019.
