 Gaussian 16, Revision A.03,
 Gaussian 16:  EM64L-G16RevA.03 25-Dec-2016

 ----------------------------------------------
 #p m062x/6-311+g(2df,2p) Opt=(CalcFC,ModRedun)
 ----------------------------------------------

 ----------------------------------------
 Gaussian Input Prepared from Scan Object
 ----------------------------------------
 Symbolic Z-matrix:
 Charge =  0 Multiplicity = 2

 SCF Done:  E(UM062X) =  -232.965196238     A.U. after   14 cycles

  Exact polarizability:   0.000   0.000   0.000   0.000   0.000   0.000
 Approx polarizability:  64.422   0.014  58.758   0.071   0.672  59.548

 Optimization completed.
    -- Stationary point found.
 SCF Done:  E(UM062X) =  -232.962948881     A.U. after   14 cycles
 SCF Done:  E(UM062X) =  -232.963377991     A.U. after   11 cycles
 SCF Done:  E(UM062X) =  -232.963405785     A.U. after   12 cycles
 SCF Done:  E(UM062X) =  -232.963461459     A.U. after   12 cycles
 SCF Done:  E(UM062X) =  -232.963513157     A.U. after   12 cycles
 SCF Done:  E(UM062X) =  -232.962846732     A.U. after   13 cycles
 SCF Done:  E(UM062X) =  -232.963782588     A.U. after   12 cycles
 SCF Done:  E(UM062X) =  -232.963749739     A.U. after   11 cycles
 SCF Done:  E(UM062X) =  -232.963631751     A.U. after   11 cycles
 Optimization completed.
 SCF Done:  E(UM062X) =  -232.963113577     A.U. after   11 cycles
 SCF Done:  E(UM062X) =  -232.963173661     A.U. after   12 cycles
 SCF Done:  E(UM062X) =  -232.963184223     A.U. after   10 cycles
 SCF Done:  E(UM062X) =  -232.963184286     A.U. after    8 cycles
 SCF Done:  E(UM062X) =  -232.963184364     A.U. after    8 cycles
    -- Stationary point found.
 SCF Done:  E(UM062X) =  -232.964684447     A.U. after   14 cycles
 SCF Done:  E(UM062X) =  -232.965129821     A.U. after   12 cycles
 SCF Done:  E(UM062X) =  -232.965192433     A.U. after   12 cycles
 SCF Done:  E(UM062X) =  -232.965195935     A.U. after    9 cycles
 SCF Done:  E(UM062X) =  -232.965196233     A.U. after    8 cycles
 Optimization completed.
    -- Stationary point found.

                         Standard orientation:
 ---------------------------------------------------------------------
 Center     Atomic      Atomic             Coordinates (Angstroms)
 Number     Number       Type             X           Y           Z
 ---------------------------------------------------------------------
      1          8           0        0.765952   -0.550199   -0.335186
      2          6           0       -0.372487    0.002653    0.323333
      3          6           0       -0.599847    1.434273   -0.132265
      4          6           0       -1.543212   -0.901558    0.000947
      5          6           0        1.962244   -0.088159    0.076460
      6          1           0       -0.175843   -0.014760    1.401993
      7          1           0        0.271505    2.052194    0.079768
      8          1           0       -1.463199    1.860851    0.377659
      9          1           0       -0.783814    1.453025   -1.206863
     10          1           0       -2.445366   -0.541482    0.493762
     11          1           0       -1.715660   -0.912142   -1.075347
     12          1           0       -1.344683   -1.919767    0.330181
     13          1           0        2.044786    0.277845    1.093242
     14          1           0        2.804463   -0.537420   -0.423755
 ---------------------------------------------------------------------

 The electronic state is 2-A.
 Alpha  occ. eigenvalues --  -19.65166 -10.59644 -10.57371 -10.52744 -10.52698
 Alpha  occ. eigenvalues --   -1.19238  -0.89547  -0.79167  -0.75654  -0.67270
 Alpha  occ. eigenvalues --   -0.57916  -0.55713  -0.54382  -0.49707  -0.46289
 Alpha  occ. eigenvalues --   -0.45781  -0.44411  -0.42242  -0.40123  -0.38859
 Alpha  occ. eigenvalues --   -0.22850
 Alpha virt. eigenvalues --    0.01819   0.03467   0.03655   0.03926   0.05867
 Alpha virt. eigenvalues --    0.06590   0.07257   0.07655   0.08315   0.10053
 Alpha virt. eigenvalues --    0.10606   0.11776   0.12702   0.13169   0.13832

  Beta  occ. eigenvalues --  -19.64727 -10.59652 -10.56674 -10.52744 -10.52687
  Beta  occ. eigenvalues --   -1.17842  -0.89229  -0.78985  -0.73519  -0.66409
  Beta  occ. eigenvalues --   -0.56861  -0.55068  -0.52729  -0.48826  -0.46117
  Beta  occ. eigenvalues --   -0.45525  -0.43222  -0.41855  -0.39231  -0.37221
  Beta virt. eigenvalues --   -0.00641   0.01610   0.03203   0.03780   0.04086
  Beta virt. eigenvalues --    0.05972   0.06642   0.07269   0.07668   0.08497
  Beta virt. eigenvalues --    0.09544   0.10600   0.11992   0.12726   0.13098

 Mulliken charges and spin densities:
               1          2
     1  O   -0.046419   0.062470
     2  C   -0.271609   0.040116
     3  C   -0.326888   0.002327
     4  C   -0.420412  -0.000327
     5  C   -0.313613   0.986789
     6  H    0.163542  -0.001204
     7  H    0.145296  -0.009985
     8  H    0.142492  -0.001758
     9  H    0.161765  -0.000442
    10  H    0.141393  -0.000344
    11  H    0.161340  -0.000427
    12  H    0.150345  -0.000625
    13  H    0.148342  -0.041293
    14  H    0.164426  -0.035299
 Sum of Mulliken charges =  -0.00000   1.00000

 Dipole moment (field-independent basis, Debye):
    X=             -0.9013    Y=              0.4778    Z=              0.9913  Tot=              1.4224
 Quadrupole moment (field-independent basis, Debye-Ang):
   XX=            -31.7165   YY=            -34.0871   ZZ=            -32.8294
   XY=             -0.2382   XZ=              0.5334   YZ=              0.1629

 Normal termination of Gaussian 16 at Fri Mar 29 16:50:31 2019.
