 Gaussian 16, Revision A.03,
 Gaussian 16:  EM64L-G16RevA.03 25-Dec-2016

 ----------------------------------------------
 #p m062x/6-311+g(2df,2p) Opt=(CalcFC,ModRedun)
 ----------------------------------------------

 ----------------------------------------
 Gaussian Input Prepared from Scan Object
 ----------------------------------------
 Symbolic Z-matrix:
 Charge =  0 Multiplicity = 2

 SCF Done:  E(UM062X) =  -232.965196238     A.U. after   14 cycles

  Exact polarizability:   0.000   0.000   0.000   0.000   0.000   0.000
 Approx polarizability:  64.422   0.014  58.758   0.071   0.672  59.548

 Optimization completed.
    -- Stationary point found.
 SCF Done:  E(UM062X) =  -232.963233189     A.U. after   12 cycles
 SCF Done:  E(UM062X) =  -232.964864530     A.U. after   12 cycles
 SCF Done:  E(UM062X) =  -232.964897296     A.U. after   10 cycles
 Optimization completed.
 SCF Done:  E(UM062X) =  -232.962344742     A.U. after   12 cycles
 SCF Done:  E(UM062X) =  -232.964014564     A.U. after   12 cycles
 SCF Done:  E(UM062X) =  -232.964054665     A.U. after    9 cycles
 SCF Done:  E(UM062X) =  -232.961030669     A.U. after   12 cycles
 SCF Done:  E(UM062X) =  -232.962799766     A.U. after   12 cycles
 SCF Done:  E(UM062X) =  -232.962851168     A.U. after   10 cycles
 SCF Done:  E(UM062X) =  -232.962911389     A.U. after    6 cycles
 SCF Done:  E(UM062X) =  -232.962231045     A.U. after   11 cycles
 SCF Done:  E(UM062X) =  -232.964040529     A.U. after   11 cycles
 SCF Done:  E(UM062X) =  -232.964071152     A.U. after    9 cycles
 SCF Done:  E(UM062X) =  -232.963161103     A.U. after   12 cycles
 SCF Done:  E(UM062X) =  -232.964871569     A.U. after   11 cycles
 SCF Done:  E(UM062X) =  -232.964896733     A.U. after    9 cycles
    -- Stationary point found.
 SCF Done:  E(UM062X) =  -232.963525076     A.U. after   12 cycles
 SCF Done:  E(UM062X) =  -232.965171079     A.U. after   12 cycles
 SCF Done:  E(UM062X) =  -232.965196100     A.U. after    9 cycles
 Optimization completed.
    -- Stationary point found.

                         Standard orientation:
 ---------------------------------------------------------------------
 Center     Atomic      Atomic             Coordinates (Angstroms)
 Number     Number       Type             X           Y           Z
 ---------------------------------------------------------------------
      1          8           0        0.765669   -0.550047   -0.335274
      2          6           0       -0.372634    0.002664    0.323531
      3          6           0       -0.599110    1.434271   -0.132207
      4          6           0       -1.543655   -0.901130    0.000867
      5          6           0        1.962208   -0.088667    0.076469
      6          1           0       -0.176007   -0.014999    1.402181
      7          1           0        0.272934    2.051234    0.079774
      8          1           0       -1.462129    1.862021    0.377397
      9          1           0       -0.782834    1.452717   -1.206874
     10          1           0       -2.445729   -0.540580    0.493478
     11          1           0       -1.715905   -0.911724   -1.075455
     12          1           0       -1.345709   -1.919440    0.330159
     13          1           0        2.044991    0.276467    1.093545
     14          1           0        2.804186   -0.538148   -0.423968
 ---------------------------------------------------------------------

 The electronic state is 2-A.
 Alpha  occ. eigenvalues --  -19.65165 -10.59643 -10.57372 -10.52745 -10.52696
 Alpha  occ. eigenvalues --   -1.19238  -0.89547  -0.79166  -0.75656  -0.67270
 Alpha  occ. eigenvalues --   -0.57917  -0.55713  -0.54382  -0.49707  -0.46287
 Alpha  occ. eigenvalues --   -0.45780  -0.44409  -0.42242  -0.40122  -0.38860
 Alpha  occ. eigenvalues --   -0.22852
 Alpha virt. eigenvalues --    0.01820   0.03467   0.03655   0.03926   0.05867
 Alpha virt. eigenvalues --    0.06590   0.07257   0.07655   0.08314   0.10053
 Alpha virt. eigenvalues --    0.10606   0.11775   0.12700   0.13170   0.13833

  Beta  occ. eigenvalues --  -19.64726 -10.59652 -10.56675 -10.52745 -10.52685
  Beta  occ. eigenvalues --   -1.17842  -0.89229  -0.78985  -0.73520  -0.66409
  Beta  occ. eigenvalues --   -0.56862  -0.55068  -0.52728  -0.48827  -0.46115
  Beta  occ. eigenvalues --   -0.45525  -0.43219  -0.41855  -0.39229  -0.37222
  Beta virt. eigenvalues --   -0.00642   0.01611   0.03203   0.03781   0.04086
  Beta virt. eigenvalues --    0.05972   0.06642   0.07268   0.07668   0.08496
  Beta virt. eigenvalues --    0.09544   0.10600   0.11992   0.12725   0.13098

 Mulliken charges and spin densities:
               1          2
     1  O   -0.046416   0.062487
     2  C   -0.271548   0.040123
     3  C   -0.326808   0.002351
     4  C   -0.420431  -0.000322
     5  C   -0.313656   0.986728
     6  H    0.163518  -0.001205
     7  H    0.145304  -0.010007
     8  H    0.142463  -0.001760
     9  H    0.161750  -0.000443
    10  H    0.141386  -0.000343
    11  H    0.161339  -0.000427
    12  H    0.150333  -0.000625
    13  H    0.148348  -0.041272
    14  H    0.164417  -0.035284
 Sum of Mulliken charges =  -0.00000   1.00000

 Dipole moment (field-independent basis, Debye):
    X=             -0.9010    Y=              0.4767    Z=              0.9915  Tot=              1.4220
 Quadrupole moment (field-independent basis, Debye-Ang):
   XX=            -31.7162   YY=            -34.0880   ZZ=            -32.8285
   XY=             -0.2400   XZ=              0.5337   YZ=              0.1624

 Normal termination of Gaussian 16 at Tue Apr 23 23:11:22 2019.
