 Gaussian 16, Revision A.03,
 Gaussian 16:  EM64L-G16RevA.03 25-Dec-2016

 ----------------------------------------------
 #p m062x/6-311+g(2df,2p) Opt=(CalcFC,ModRedun)
 ----------------------------------------------

 ----------------------------------------
 Gaussian Input Prepared from Scan Object
 ----------------------------------------
 Symbolic Z-matrix:
 Charge =  0 Multiplicity = 2

 SCF Done:  E(UM062X) =  -232.965196238     A.U. after   14 cycles

  Exact polarizability:   0.000   0.000   0.000   0.000   0.000   0.000
 Approx polarizability:  64.422   0.014  58.758   0.071   0.672  59.548

 Optimization completed.
    -- Stationary point found.
 SCF Done:  E(UM062X) =  -232.963761520     A.U. after   11 cycles
 SCF Done:  E(UM062X) =  -232.964897119     A.U. after   11 cycles
 SCF Done:  E(UM062X) =  -232.964918749     A.U. after    9 cycles
 Optimization completed.
 SCF Done:  E(UM062X) =  -232.962935463     A.U. after   11 cycles
 SCF Done:  E(UM062X) =  -232.964095385     A.U. after   10 cycles
 SCF Done:  E(UM062X) =  -232.964119549     A.U. after    9 cycles
 SCF Done:  E(UM062X) =  -232.964119638     A.U. after    8 cycles
 SCF Done:  E(UM062X) =  -232.961656260     A.U. after   11 cycles
 SCF Done:  E(UM062X) =  -232.962905082     A.U. after   11 cycles
 SCF Done:  E(UM062X) =  -232.964158768     A.U. after   10 cycles
 SCF Done:  E(UM062X) =  -232.964158883     A.U. after    8 cycles
 SCF Done:  E(UM062X) =  -232.963669706     A.U. after   11 cycles
 SCF Done:  E(UM062X) =  -232.964904675     A.U. after   11 cycles
 SCF Done:  E(UM062X) =  -232.964921998     A.U. after   10 cycles
 SCF Done:  E(UM062X) =  -232.964922174     A.U. after    8 cycles
    -- Stationary point found.
 SCF Done:  E(UM062X) =  -232.964013321     A.U. after   11 cycles
 SCF Done:  E(UM062X) =  -232.965174451     A.U. after   11 cycles
 SCF Done:  E(UM062X) =  -232.965196072     A.U. after   10 cycles
 SCF Done:  E(UM062X) =  -232.965196234     A.U. after    8 cycles
 Optimization completed.
    -- Stationary point found.

                         Standard orientation:
 ---------------------------------------------------------------------
 Center     Atomic      Atomic             Coordinates (Angstroms)
 Number     Number       Type             X           Y           Z
 ---------------------------------------------------------------------
      1          8           0        0.766044   -0.550083   -0.335222
      2          6           0       -0.372490    0.002654    0.323292
      3          6           0       -0.600102    1.434251   -0.132248
      4          6           0       -1.543085   -0.901735    0.000962
      5          6           0        1.962300   -0.088018    0.076459
      6          1           0       -0.175761   -0.014659    1.401935
      7          1           0        0.271242    2.052263    0.079604
      8          1           0       -1.463373    1.860645    0.377959
      9          1           0       -0.784331    1.453107   -1.206795
     10          1           0       -2.445215   -0.541955    0.494041
     11          1           0       -1.715757   -0.912080   -1.075300
     12          1           0       -1.344281   -1.919982    0.329909
     13          1           0        2.044819    0.277676    1.093351
     14          1           0        2.804562   -0.537263   -0.423716
 ---------------------------------------------------------------------

 The electronic state is 2-A.
 Alpha  occ. eigenvalues --  -19.65166 -10.59644 -10.57371 -10.52745 -10.52698
 Alpha  occ. eigenvalues --   -1.19237  -0.89547  -0.79167  -0.75654  -0.67270
 Alpha  occ. eigenvalues --   -0.57915  -0.55713  -0.54382  -0.49707  -0.46289
 Alpha  occ. eigenvalues --   -0.45781  -0.44412  -0.42241  -0.40123  -0.38858
 Alpha  occ. eigenvalues --   -0.22851
 Alpha virt. eigenvalues --    0.01819   0.03467   0.03655   0.03926   0.05867
 Alpha virt. eigenvalues --    0.06590   0.07257   0.07655   0.08314   0.10053
 Alpha virt. eigenvalues --    0.10606   0.11776   0.12702   0.13169   0.13832

  Beta  occ. eigenvalues --  -19.64727 -10.59652 -10.56674 -10.52744 -10.52688
  Beta  occ. eigenvalues --   -1.17842  -0.89230  -0.78985  -0.73519  -0.66409
  Beta  occ. eigenvalues --   -0.56861  -0.55068  -0.52729  -0.48826  -0.46117
  Beta  occ. eigenvalues --   -0.45525  -0.43222  -0.41854  -0.39231  -0.37221
  Beta virt. eigenvalues --   -0.00642   0.01610   0.03203   0.03780   0.04086
  Beta virt. eigenvalues --    0.05973   0.06642   0.07269   0.07668   0.08497
  Beta virt. eigenvalues --    0.09544   0.10600   0.11992   0.12726   0.13098

 Mulliken charges and spin densities:
               1          2
     1  O   -0.046412   0.062485
     2  C   -0.271609   0.040125
     3  C   -0.326902   0.002319
     4  C   -0.420379  -0.000324
     5  C   -0.313609   0.986753
     6  H    0.163545  -0.001208
     7  H    0.145300  -0.009989
     8  H    0.142498  -0.001758
     9  H    0.161755  -0.000441
    10  H    0.141401  -0.000344
    11  H    0.161333  -0.000427
    12  H    0.150342  -0.000625
    13  H    0.148321  -0.041277
    14  H    0.164416  -0.035289
 Sum of Mulliken charges =  -0.00000   1.00000

 Dipole moment (field-independent basis, Debye):
    X=             -0.9016    Y=              0.4774    Z=              0.9914  Tot=              1.4225
 Quadrupole moment (field-independent basis, Debye-Ang):
   XX=            -31.7166   YY=            -34.0870   ZZ=            -32.8293
   XY=             -0.2388   XZ=              0.5336   YZ=              0.1625

 Normal termination of Gaussian 16 at Mon Mar 11 22:50:50 2019.
