 Gaussian 16, Revision A.03,
 Gaussian 16:  EM64L-G16RevA.03 25-Dec-2016

 ----------------------------------------------
 #p m062x/6-311+g(2df,2p) Opt=(CalcFC,ModRedun)
 ----------------------------------------------

 ----------------------------------------
 Gaussian Input Prepared from Scan Object
 ----------------------------------------
 Symbolic Z-matrix:
 Charge =  0 Multiplicity = 2

 SCF Done:  E(UM062X) =  -232.965196238     A.U. after   14 cycles

  Exact polarizability:   0.000   0.000   0.000   0.000   0.000   0.000
 Approx polarizability:  64.422   0.014  58.758   0.071   0.672  59.548

 Optimization completed.
    -- Stationary point found.
 SCF Done:  E(UM062X) =  -232.953868326     A.U. after   15 cycles
 SCF Done:  E(UM062X) =  -232.962882875     A.U. after   12 cycles
 SCF Done:  E(UM062X) =  -232.963615448     A.U. after   11 cycles
 SCF Done:  E(UM062X) =  -232.963633228     A.U. after   10 cycles
 SCF Done:  E(UM062X) =  -232.963633701     A.U. after    8 cycles
 Optimization completed.
 SCF Done:  E(UM062X) =  -232.951943504     A.U. after   14 cycles
 SCF Done:  E(UM062X) =  -232.962522100     A.U. after   13 cycles
 SCF Done:  E(UM062X) =  -232.963310478     A.U. after   12 cycles
 SCF Done:  E(UM062X) =  -232.963354957     A.U. after   10 cycles
 SCF Done:  E(UM062X) =  -232.962656928     A.U. after   12 cycles
 SCF Done:  E(UM062X) =  -232.962717718     A.U. after   10 cycles
 SCF Done:  E(UM062X) =  -232.962726027     A.U. after   10 cycles
 SCF Done:  E(UM062X) =  -232.962726643     A.U. after    7 cycles
 SCF Done:  E(UM062X) =  -232.962726741     A.U. after    8 cycles
    -- Stationary point found.
 SCF Done:  E(UM062X) =  -232.955603545     A.U. after   13 cycles
 SCF Done:  E(UM062X) =  -232.964589071     A.U. after   12 cycles
 SCF Done:  E(UM062X) =  -232.965166284     A.U. after   12 cycles
 SCF Done:  E(UM062X) =  -232.965195120     A.U. after   11 cycles
 SCF Done:  E(UM062X) =  -232.965196205     A.U. after    8 cycles
 Optimization completed.
    -- Stationary point found.

                         Standard orientation:
 ---------------------------------------------------------------------
 Center     Atomic      Atomic             Coordinates (Angstroms)
 Number     Number       Type             X           Y           Z
 ---------------------------------------------------------------------
      1          8           0        0.765898   -0.550216   -0.335312
      2          6           0       -0.372512    0.002637    0.323311
      3          6           0       -0.599576    1.434296   -0.132252
      4          6           0       -1.543322   -0.901421    0.000974
      5          6           0        1.962178   -0.088314    0.076534
      6          1           0       -0.176027   -0.015038    1.401982
      7          1           0        0.271977    2.052016    0.079530
      8          1           0       -1.462698    1.861152    0.377845
      9          1           0       -0.783770    1.453021   -1.206819
     10          1           0       -2.445398   -0.541162    0.493817
     11          1           0       -1.715857   -0.911911   -1.075317
     12          1           0       -1.344965   -1.919686    0.330146
     13          1           0        2.044459    0.277913    1.093254
     14          1           0        2.804493   -0.537764   -0.423350
 ---------------------------------------------------------------------

 The electronic state is 2-A.
 Alpha  occ. eigenvalues --  -19.65166 -10.59643 -10.57371 -10.52745 -10.52698
 Alpha  occ. eigenvalues --   -1.19237  -0.89547  -0.79167  -0.75654  -0.67271
 Alpha  occ. eigenvalues --   -0.57916  -0.55714  -0.54383  -0.49706  -0.46289
 Alpha  occ. eigenvalues --   -0.45780  -0.44412  -0.42242  -0.40123  -0.38860
 Alpha  occ. eigenvalues --   -0.22850
 Alpha virt. eigenvalues --    0.01819   0.03466   0.03655   0.03926   0.05867
 Alpha virt. eigenvalues --    0.06590   0.07258   0.07655   0.08315   0.10054
 Alpha virt. eigenvalues --    0.10606   0.11776   0.12702   0.13169   0.13832

  Beta  occ. eigenvalues --  -19.64727 -10.59652 -10.56673 -10.52744 -10.52688
  Beta  occ. eigenvalues --   -1.17842  -0.89230  -0.78986  -0.73518  -0.66410
  Beta  occ. eigenvalues --   -0.56862  -0.55068  -0.52730  -0.48824  -0.46117
  Beta  occ. eigenvalues --   -0.45524  -0.43222  -0.41855  -0.39231  -0.37222
  Beta virt. eigenvalues --   -0.00641   0.01610   0.03203   0.03780   0.04086
  Beta virt. eigenvalues --    0.05973   0.06641   0.07269   0.07668   0.08497
  Beta virt. eigenvalues --    0.09544   0.10600   0.11992   0.12726   0.13098

 Mulliken charges and spin densities:
               1          2
     1  O   -0.046439   0.062483
     2  C   -0.271622   0.040088
     3  C   -0.326861   0.002344
     4  C   -0.420406  -0.000323
     5  C   -0.313628   0.986785
     6  H    0.163550  -0.001198
     7  H    0.145307  -0.009986
     8  H    0.142491  -0.001757
     9  H    0.161755  -0.000441
    10  H    0.141400  -0.000344
    11  H    0.161329  -0.000426
    12  H    0.150348  -0.000624
    13  H    0.148350  -0.041301
    14  H    0.164428  -0.035298
 Sum of Mulliken charges =  -0.00000   1.00000

 Dipole moment (field-independent basis, Debye):
    X=             -0.9015    Y=              0.4778    Z=              0.9916  Tot=              1.4228
 Quadrupole moment (field-independent basis, Debye-Ang):
   XX=            -31.7171   YY=            -34.0863   ZZ=            -32.8301
   XY=             -0.2383   XZ=              0.5334   YZ=              0.1625

 Normal termination of Gaussian 16 at Fri Mar 29 17:13:53 2019.
