 Gaussian 16, Revision A.03,
 Gaussian 16:  EM64L-G16RevA.03 25-Dec-2016

 ----------------------------------------------
 #p m062x/6-311+g(2df,2p) Opt=(CalcFC,ModRedun)
 ----------------------------------------------

 ----------------------------------------
 Gaussian Input Prepared from Scan Object
 ----------------------------------------
 Symbolic Z-matrix:
 Charge =  0 Multiplicity = 2

 SCF Done:  E(UM062X) =  -232.965196238     A.U. after   14 cycles

  Exact polarizability:   0.000   0.000   0.000   0.000   0.000   0.000
 Approx polarizability:  64.422   0.014  58.758   0.071   0.672  59.548

 Optimization completed.
    -- Stationary point found.
 SCF Done:  E(UM062X) =  -232.963276311     A.U. after   11 cycles
 SCF Done:  E(UM062X) =  -232.964845006     A.U. after   11 cycles
 SCF Done:  E(UM062X) =  -232.964876119     A.U. after    9 cycles
 Optimization completed.
 SCF Done:  E(UM062X) =  -232.962340067     A.U. after   11 cycles
 SCF Done:  E(UM062X) =  -232.963957965     A.U. after   11 cycles
 SCF Done:  E(UM062X) =  -232.963995167     A.U. after    9 cycles
 SCF Done:  E(UM062X) =  -232.961000073     A.U. after   11 cycles
 SCF Done:  E(UM062X) =  -232.962719271     A.U. after   11 cycles
 SCF Done:  E(UM062X) =  -232.962767728     A.U. after    9 cycles
 SCF Done:  E(UM062X) =  -232.962787736     A.U. after    5 cycles
 SCF Done:  E(UM062X) =  -232.962223151     A.U. after   11 cycles
 SCF Done:  E(UM062X) =  -232.963972849     A.U. after   11 cycles
 SCF Done:  E(UM062X) =  -232.964007828     A.U. after    9 cycles
 SCF Done:  E(UM062X) =  -232.963212917     A.U. after   11 cycles
 SCF Done:  E(UM062X) =  -232.964855208     A.U. after   11 cycles
 SCF Done:  E(UM062X) =  -232.964881859     A.U. after    9 cycles
    -- Stationary point found.
 SCF Done:  E(UM062X) =  -232.963591536     A.U. after   11 cycles
 SCF Done:  E(UM062X) =  -232.965170827     A.U. after   11 cycles
 SCF Done:  E(UM062X) =  -232.965196189     A.U. after    9 cycles
 Optimization completed.
    -- Stationary point found.

                         Standard orientation:
 ---------------------------------------------------------------------
 Center     Atomic      Atomic             Coordinates (Angstroms)
 Number     Number       Type             X           Y           Z
 ---------------------------------------------------------------------
      1          8           0        0.765909   -0.550113   -0.335245
      2          6           0       -0.372549    0.002636    0.323251
      3          6           0       -0.599828    1.434309   -0.132226
      4          6           0       -1.543099   -0.901658    0.000901
      5          6           0        1.962195   -0.088155    0.076493
      6          1           0       -0.176127   -0.014832    1.401983
      7          1           0        0.271678    2.052068    0.079667
      8          1           0       -1.462981    1.861022    0.377919
      9          1           0       -0.784050    1.453187   -1.206771
     10          1           0       -2.445095   -0.541567    0.494081
     11          1           0       -1.716015   -0.912199   -1.075358
     12          1           0       -1.344147   -1.919698    0.330274
     13          1           0        2.044713    0.277461    1.093409
     14          1           0        2.804441   -0.537333   -0.423763
 ---------------------------------------------------------------------

 The electronic state is 2-A.
 Alpha  occ. eigenvalues --  -19.65166 -10.59643 -10.57371 -10.52744 -10.52698
 Alpha  occ. eigenvalues --   -1.19239  -0.89548  -0.79168  -0.75655  -0.67269
 Alpha  occ. eigenvalues --   -0.57917  -0.55713  -0.54384  -0.49707  -0.46290
 Alpha  occ. eigenvalues --   -0.45779  -0.44412  -0.42242  -0.40123  -0.38858
 Alpha  occ. eigenvalues --   -0.22851
 Alpha virt. eigenvalues --    0.01819   0.03467   0.03655   0.03926   0.05867
 Alpha virt. eigenvalues --    0.06590   0.07257   0.07655   0.08314   0.10054
 Alpha virt. eigenvalues --    0.10606   0.11776   0.12702   0.13169   0.13832

  Beta  occ. eigenvalues --  -19.64727 -10.59651 -10.56674 -10.52744 -10.52687
  Beta  occ. eigenvalues --   -1.17843  -0.89230  -0.78986  -0.73519  -0.66408
  Beta  occ. eigenvalues --   -0.56862  -0.55067  -0.52731  -0.48826  -0.46118
  Beta  occ. eigenvalues --   -0.45523  -0.43222  -0.41855  -0.39231  -0.37220
  Beta virt. eigenvalues --   -0.00642   0.01610   0.03203   0.03781   0.04086
  Beta virt. eigenvalues --    0.05973   0.06642   0.07268   0.07668   0.08497
  Beta virt. eigenvalues --    0.09544   0.10600   0.11992   0.12726   0.13098

 Mulliken charges and spin densities:
               1          2
     1  O   -0.046419   0.062467
     2  C   -0.271601   0.040110
     3  C   -0.326906   0.002337
     4  C   -0.420351  -0.000327
     5  C   -0.313640   0.986780
     6  H    0.163553  -0.001204
     7  H    0.145301  -0.009993
     8  H    0.142496  -0.001758
     9  H    0.161748  -0.000442
    10  H    0.141383  -0.000344
    11  H    0.161318  -0.000426
    12  H    0.150348  -0.000623
    13  H    0.148344  -0.041284
    14  H    0.164423  -0.035293
 Sum of Mulliken charges =  -0.00000   1.00000

 Dipole moment (field-independent basis, Debye):
    X=             -0.9012    Y=              0.4774    Z=              0.9914  Tot=              1.4223
 Quadrupole moment (field-independent basis, Debye-Ang):
   XX=            -31.7172   YY=            -34.0875   ZZ=            -32.8288
   XY=             -0.2393   XZ=              0.5335   YZ=              0.1621

 Normal termination of Gaussian 16 at Wed Apr 24 00:12:14 2019.
