 Gaussian 16, Revision A.03,
 Gaussian 16:  EM64L-G16RevA.03 25-Dec-2016

 ----------------------------------------------------------------------
 #p m062x/6-311+g(2df,2p) opt=(calcfc,verytight,gdiis,maxcycles=900) fr
 eq iop(7/33=1,2/16=3)
 ----------------------------------------------------------------------

 ------------------------------
 Gaussian input prepared by ASE
 ------------------------------
 Symbolic Z-matrix:
 Charge =  0 Multiplicity = 2

 SCF Done:  E(UM062X) =  -232.954990510     A.U. after   14 cycles
 SCF Done:  E(UM062X) =  -232.963227898     A.U. after   13 cycles
 SCF Done:  E(UM062X) =  -232.957812180     A.U. after   15 cycles
 SCF Done:  E(UM062X) =  -232.964884984     A.U. after   15 cycles
 SCF Done:  E(UM062X) =  -232.965084841     A.U. after   11 cycles
 SCF Done:  E(UM062X) =  -232.965178352     A.U. after   12 cycles
 SCF Done:  E(UM062X) =  -232.965195687     A.U. after   11 cycles
 SCF Done:  E(UM062X) =  -232.965196087     A.U. after    9 cycles
 SCF Done:  E(UM062X) =  -232.965196225     A.U. after    8 cycles
 SCF Done:  E(UM062X) =  -232.965196233     A.U. after    6 cycles
 SCF Done:  E(UM062X) =  -232.965196236     A.U. after    5 cycles
 SCF Done:  E(UM062X) =  -232.965196237     A.U. after    5 cycles
 SCF Done:  E(UM062X) =  -232.965196237     A.U. after    3 cycles
 SCF Done:  E(UM062X) =  -232.965196237     A.U. after    2 cycles
 Optimization completed.
    -- Stationary point found.
 Normal termination of Gaussian 16 at Tue Apr  9 02:04:27 2019.

 ----------------------------------------------------------------------
 #P Geom=AllCheck Guess=TCheck SCRF=Check Test GenChk UM062X/6-311+G(2d
 f,2p) Freq
 ----------------------------------------------------------------------

 Structure from the checkpoint file:  "/scratch/underkoffler.c/gaussian_scratch/Gau-29812.chk"
 ------------------------------
 Gaussian input prepared by ASE
 ------------------------------
 Charge =  0 Multiplicity = 2

                         Standard orientation:
 ---------------------------------------------------------------------
 Center     Atomic      Atomic             Coordinates (Angstroms)
 Number     Number       Type             X           Y           Z
 ---------------------------------------------------------------------
      1          8           0        0.766000   -0.550070   -0.335237
      2          6           0       -0.372487    0.002651    0.323329
      3          6           0       -1.543123   -0.901676    0.000947
      4          6           0       -0.600011    1.434252   -0.132236
      5          6           0        1.962282   -0.088081    0.076469
      6          1           0       -0.175811   -0.014772    1.401981
      7          1           0       -1.344501   -1.919862    0.330194
      8          1           0       -2.445318   -0.541678    0.493746
      9          1           0       -1.715557   -0.912288   -1.075349
     10          1           0       -0.784159    1.452992   -1.206803
     11          1           0        0.271331    2.052237    0.079651
     12          1           0       -1.463304    1.860782    0.377831
     13          1           0        2.044829    0.277531    1.093387
     14          1           0        2.804523   -0.537263   -0.423793
 ---------------------------------------------------------------------

 SCF Done:  E(UM062X) =  -232.965196237     A.U. after    1 cycles

 The electronic state is 2-A.
 Alpha  occ. eigenvalues --  -19.65166 -10.59644 -10.57371 -10.52745 -10.52698
 Alpha  occ. eigenvalues --   -1.19238  -0.89547  -0.79167  -0.75655  -0.67270
 Alpha  occ. eigenvalues --   -0.57916  -0.55713  -0.54382  -0.49707  -0.46289
 Alpha  occ. eigenvalues --   -0.45780  -0.44411  -0.42241  -0.40123  -0.38859
 Alpha  occ. eigenvalues --   -0.22851
 Alpha virt. eigenvalues --    0.01819   0.03467   0.03655   0.03926   0.05867
 Alpha virt. eigenvalues --    0.06590   0.07257   0.07655   0.08314   0.10053
 Alpha virt. eigenvalues --    0.10606   0.11776   0.12702   0.13169   0.13832

  Beta  occ. eigenvalues --  -19.64727 -10.59652 -10.56674 -10.52744 -10.52687
  Beta  occ. eigenvalues --   -1.17842  -0.89230  -0.78985  -0.73519  -0.66409
  Beta  occ. eigenvalues --   -0.56861  -0.55068  -0.52729  -0.48826  -0.46117
  Beta  occ. eigenvalues --   -0.45525  -0.43222  -0.41854  -0.39231  -0.37221
  Beta virt. eigenvalues --   -0.00642   0.01610   0.03203   0.03781   0.04086
  Beta virt. eigenvalues --    0.05973   0.06642   0.07269   0.07668   0.08497
  Beta virt. eigenvalues --    0.09544   0.10600   0.11992   0.12726   0.13098

 Mulliken charges and spin densities:
               1          2
     1  O   -0.046412   0.062479
     2  C   -0.271593   0.040129
     3  C   -0.420369  -0.000322
     4  C   -0.326923   0.002320
     5  C   -0.313612   0.986762
     6  H    0.163536  -0.001208
     7  H    0.150344  -0.000625
     8  H    0.141390  -0.000344
     9  H    0.161341  -0.000427
    10  H    0.161754  -0.000441
    11  H    0.145301  -0.009991
    12  H    0.142496  -0.001758
    13  H    0.148328  -0.041281
    14  H    0.164420  -0.035292
 Sum of Mulliken charges =  -0.00000   1.00000

 Dipole moment (field-independent basis, Debye):
    X=             -0.9014    Y=              0.4774    Z=              0.9914  Tot=              1.4224
 Quadrupole moment (field-independent basis, Debye-Ang):
   XX=            -31.7166   YY=            -34.0872   ZZ=            -32.8291
   XY=             -0.2388   XZ=              0.5335   YZ=              0.1625

  Exact polarizability:  63.807   0.497  53.593   0.353  -0.712  48.608
 Approx polarizability:  64.422   0.014  58.758   0.071   0.672  59.548

                      1                      2                      3
                      A                      A                      A
 Frequencies --    113.8403               211.1397               250.6934
 Red. masses --      2.6626                 1.0367                 1.0489
 Frc consts  --      0.0203                 0.0272                 0.0388
 IR Inten    --      2.4986                 0.1573                 0.8369

                      4                      5                      6
                      A                      A                      A
 Frequencies --    269.6382               317.5898               360.4092
 Red. masses --      1.3010                 2.0536                 2.1980
 Frc consts  --      0.0557                 0.1220                 0.1682
 IR Inten    --      2.8600                 2.1263                 0.5366

                      7                      8                      9
                      A                      A                      A
 Frequencies --    468.6141               518.8948               602.1249
 Red. masses --      2.6416                 2.6694                 1.3093
 Frc consts  --      0.3418                 0.4235                 0.2797
 IR Inten    --      7.5213                 2.6314                42.9600

                     10                     11                     12
                      A                      A                      A
 Frequencies --    826.9843               935.4229               945.4432
 Red. masses --      2.4455                 1.1680                 1.7552
 Frc consts  --      0.9854                 0.6022                 0.9244
 IR Inten    --      5.2301                 0.6314                 6.9713

                     13                     14                     15
                      A                      A                      A
 Frequencies --    959.2542              1139.0660              1163.8447
 Red. masses --      1.6909                 1.5003                 1.9638
 Frc consts  --      0.9167                 1.1469                 1.5672
 IR Inten    --      5.5097                10.0645                 9.1362

                     16                     17                     18
                      A                      A                      A
 Frequencies --   1202.6015              1236.1419              1303.4091
 Red. masses --      1.9366                 1.7578                 5.4736
 Frc consts  --      1.6502                 1.5826                 5.4788
 IR Inten    --     10.0803                23.2618               239.2894

                     19                     20                     21
                      A                      A                      A
 Frequencies --   1372.2490              1386.2925              1407.8883
 Red. masses --      1.3032                 1.2066                 1.4249
 Frc consts  --      1.4459                 1.3662                 1.6641
 IR Inten    --      2.3982                13.4737                24.2075

                     22                     23                     24
                      A                      A                      A
 Frequencies --   1423.1124              1484.1185              1489.1161
 Red. masses --      1.3222                 1.0601                 1.1423
 Frc consts  --      1.5777                 1.3757                 1.4925
 IR Inten    --     22.8057                 1.4592                 3.5111

                     25                     26                     27
                      A                      A                      A
 Frequencies --   1491.9701              1497.3492              1515.2463
 Red. masses --      1.0967                 1.0541                 1.0623
 Frc consts  --      1.4383                 1.3925                 1.4370
 IR Inten    --      2.4573                 5.8313                 8.3477

                     28                     29                     30
                      A                      A                      A
 Frequencies --   3019.5183              3065.4751              3071.9856
 Red. masses --      1.0840                 1.0347                 1.0353
 Frc consts  --      5.8231                 5.7288                 5.7567
 IR Inten    --     27.5012                10.1280                11.8079

                     31                     32                     33
                      A                      A                      A
 Frequencies --   3133.3806              3139.6079              3146.1868
 Red. masses --      1.0497                 1.1024                 1.1023
 Frc consts  --      6.0724                 6.4023                 6.4284
 IR Inten    --     20.0263                 4.3955                17.1378

                     34                     35                     36
                      A                      A                      A
 Frequencies --   3147.6593              3154.5839              3282.9545
 Red. masses --      1.1021                 1.1031                 1.1198
 Frc consts  --      6.4334                 6.4674                 7.1111
 IR Inten    --     26.5499                16.1171                 8.7559

 - Thermochemistry -
 -------------------
 Temperature   298.150 Kelvin.  Pressure   1.00000 Atm.
 Atom     1 has atomic number  8 and mass  15.99491

 Molecular mass:    73.06534 amu.
 Principal axes and moments of inertia in atomic units:
                           1         2         3
     Eigenvalues --   229.25452 448.97874 608.21383
           X            0.99974   0.01886   0.01273
           Y           -0.01878   0.99981  -0.00570
           Z           -0.01283   0.00546   0.99990
 This molecule is an asymmetric top.
 Rotational symmetry number  1.
 Rotational temperatures (Kelvin)      0.37781     0.19291     0.14241
 Rotational constants (GHZ):           7.87222     4.01966     2.96728
 Zero-point vibrational energy     323313.6 (Joules/Mol)
                                   77.27380 (Kcal/Mol)
 Warning -- explicit consideration of   9 degrees of freedom as
           vibrations may cause significant error
 Vibrational temperatures:    163.79   303.78   360.69   387.95   456.94
          (Kelvin)            518.55   674.23   746.57   866.32  1189.85
                             1345.86  1360.28  1380.15  1638.86  1674.51
                             1730.28  1778.53  1875.31  1974.36  1994.57
                             2025.64  2047.54  2135.32  2142.51  2146.61
                             2154.35  2180.10  4344.41  4410.53  4419.90
                             4508.24  4517.20  4526.66  4528.78  4538.74
                             4723.44

 Zero-point correction=                           0.123144 (Hartree/Particle)
 Thermal correction to Energy=                    0.129884
 Thermal correction to Enthalpy=                  0.130828
 Thermal correction to Gibbs Free Energy=         0.093067
 Sum of electronic and zero-point Energies=           -232.842053
 Sum of electronic and thermal Energies=              -232.835312
 Sum of electronic and thermal Enthalpies=            -232.834368
 Sum of electronic and thermal Free Energies=         -232.872129

                     E (Thermal)             CV                S
                      KCal/Mol        Cal/Mol-Kelvin    Cal/Mol-Kelvin
 Total                   81.504             23.708             79.475
 Electronic               0.000              0.000              1.377
 Translational            0.889              2.981             38.783
 Rotational               0.889              2.981             25.640
 Vibrational             79.726             17.747             13.675
 Vibration     1          0.607              1.938              3.202
 Vibration     2          0.643              1.824              2.034
 Vibration     3          0.663              1.762              1.726
 Vibration     4          0.674              1.729              1.599
 Vibration     5          0.704              1.640              1.322
 Vibration     6          0.735              1.554              1.120
 Vibration     7          0.826              1.320              0.741
 Vibration     8          0.874              1.208              0.613
 Vibration     9          0.960              1.027              0.446

                           ! Non-Optimized Parameters !
 Normal termination of Gaussian 16 at Tue Apr  9 02:13:59 2019.
