 Gaussian 16, Revision A.03,
 Gaussian 16:  EM64L-G16RevA.03 25-Dec-2016

 ----------------------------------------------
 #p m062x/6-311+g(2df,2p) Opt=(CalcFC,ModRedun)
 ----------------------------------------------

 ----------------------------------------
 Gaussian Input Prepared from Scan Object
 ----------------------------------------
 Symbolic Z-matrix:
 Charge =  0 Multiplicity = 2

 SCF Done:  E(UM062X) =  -232.965196238     A.U. after   14 cycles

  Exact polarizability:   0.000   0.000   0.000   0.000   0.000   0.000
 Approx polarizability:  64.422   0.014  58.758   0.071   0.672  59.548

 Optimization completed.
    -- Stationary point found.
 SCF Done:  E(UM062X) =  -232.949205872     A.U. after   12 cycles
 SCF Done:  E(UM062X) =  -232.959859992     A.U. after   11 cycles
 SCF Done:  E(UM062X) =  -232.962706733     A.U. after   11 cycles
 SCF Done:  E(UM062X) =  -232.962795359     A.U. after   10 cycles
 SCF Done:  E(UM062X) =  -232.962796218     A.U. after    8 cycles
 Optimization completed.
 SCF Done:  E(UM062X) =  -232.943366304     A.U. after   12 cycles
 SCF Done:  E(UM062X) =  -232.955572625     A.U. after   11 cycles
 SCF Done:  E(UM062X) =  -232.960097686     A.U. after   11 cycles
 SCF Done:  E(UM062X) =  -232.960265973     A.U. after   11 cycles
 SCF Done:  E(UM062X) =  -232.958325446     A.U. after   12 cycles
 SCF Done:  E(UM062X) =  -232.962676214     A.U. after   11 cycles
 SCF Done:  E(UM062X) =  -232.962829675     A.U. after   10 cycles
 SCF Done:  E(UM062X) =  -232.962832316     A.U. after    9 cycles
    -- Stationary point found.
 SCF Done:  E(UM062X) =  -232.951198047     A.U. after   12 cycles
 SCF Done:  E(UM062X) =  -232.962276377     A.U. after   12 cycles
 SCF Done:  E(UM062X) =  -232.965089442     A.U. after   11 cycles
 SCF Done:  E(UM062X) =  -232.965192440     A.U. after   10 cycles
 SCF Done:  E(UM062X) =  -232.965196185     A.U. after    9 cycles
 SCF Done:  E(UM062X) =  -232.965196237     A.U. after    6 cycles
 Optimization completed.
    -- Stationary point found.

                         Standard orientation:
 ---------------------------------------------------------------------
 Center     Atomic      Atomic             Coordinates (Angstroms)
 Number     Number       Type             X           Y           Z
 ---------------------------------------------------------------------
      1          8           0        0.765984   -0.550014   -0.335276
      2          6           0       -0.372491    0.002667    0.323325
      3          6           0       -0.600034    1.434275   -0.132224
      4          6           0       -1.543078   -0.901732    0.000955
      5          6           0        1.962274   -0.088097    0.076492
      6          1           0       -0.175803   -0.014778    1.401975
      7          1           0        0.271286    2.052279    0.079701
      8          1           0       -1.463349    1.860762    0.377838
      9          1           0       -0.784156    1.453048   -1.206795
     10          1           0       -2.445302   -0.541778    0.493727
     11          1           0       -1.715477   -0.912344   -1.075347
     12          1           0       -1.344426   -1.919915    0.330196
     13          1           0        2.044821    0.277399    1.093451
     14          1           0        2.804507   -0.537243   -0.423816
 ---------------------------------------------------------------------

 The electronic state is 2-A.
 Alpha  occ. eigenvalues --  -19.65166 -10.59644 -10.57371 -10.52744 -10.52698
 Alpha  occ. eigenvalues --   -1.19238  -0.89547  -0.79167  -0.75654  -0.67271
 Alpha  occ. eigenvalues --   -0.57916  -0.55713  -0.54382  -0.49707  -0.46289
 Alpha  occ. eigenvalues --   -0.45780  -0.44411  -0.42241  -0.40123  -0.38859
 Alpha  occ. eigenvalues --   -0.22851
 Alpha virt. eigenvalues --    0.01819   0.03467   0.03655   0.03926   0.05868
 Alpha virt. eigenvalues --    0.06590   0.07257   0.07655   0.08314   0.10053
 Alpha virt. eigenvalues --    0.10606   0.11776   0.12702   0.13169   0.13832

  Beta  occ. eigenvalues --  -19.64727 -10.59652 -10.56674 -10.52744 -10.52687
  Beta  occ. eigenvalues --   -1.17842  -0.89229  -0.78985  -0.73519  -0.66409
  Beta  occ. eigenvalues --   -0.56861  -0.55068  -0.52729  -0.48827  -0.46117
  Beta  occ. eigenvalues --   -0.45525  -0.43222  -0.41854  -0.39232  -0.37221
  Beta virt. eigenvalues --   -0.00642   0.01611   0.03203   0.03781   0.04086
  Beta virt. eigenvalues --    0.05973   0.06642   0.07269   0.07668   0.08497
  Beta virt. eigenvalues --    0.09544   0.10600   0.11992   0.12726   0.13098

 Mulliken charges and spin densities:
               1          2
     1  O   -0.046408   0.062480
     2  C   -0.271578   0.040135
     3  C   -0.326944   0.002313
     4  C   -0.420355  -0.000319
     5  C   -0.313615   0.986760
     6  H    0.163530  -0.001210
     7  H    0.145303  -0.009992
     8  H    0.142492  -0.001758
     9  H    0.161756  -0.000441
    10  H    0.141388  -0.000344
    11  H    0.161339  -0.000427
    12  H    0.150344  -0.000625
    13  H    0.148327  -0.041281
    14  H    0.164420  -0.035292
 Sum of Mulliken charges =  -0.00000   1.00000

 Dipole moment (field-independent basis, Debye):
    X=             -0.9014    Y=              0.4773    Z=              0.9914  Tot=              1.4224
 Quadrupole moment (field-independent basis, Debye-Ang):
   XX=            -31.7168   YY=            -34.0870   ZZ=            -32.8290
   XY=             -0.2389   XZ=              0.5334   YZ=              0.1623

 Normal termination of Gaussian 16 at Fri Mar 29 16:49:12 2019.
