 Gaussian 16, Revision A.03,
 Gaussian 16:  EM64L-G16RevA.03 25-Dec-2016

 ----------------------------------------------
 #p m062x/6-311+g(2df,2p) Opt=(CalcFC,ModRedun)
 ----------------------------------------------

 ----------------------------------------
 Gaussian Input Prepared from Scan Object
 ----------------------------------------
 Symbolic Z-matrix:
 Charge =  0 Multiplicity = 2

 SCF Done:  E(UM062X) =  -232.965196238     A.U. after   14 cycles

  Exact polarizability:   0.000   0.000   0.000   0.000   0.000   0.000
 Approx polarizability:  64.422   0.014  58.758   0.071   0.672  59.548

 Optimization completed.
    -- Stationary point found.
 SCF Done:  E(UM062X) =  -232.963732912     A.U. after   11 cycles
 SCF Done:  E(UM062X) =  -232.964898637     A.U. after   10 cycles
 SCF Done:  E(UM062X) =  -232.964922119     A.U. after   10 cycles
 SCF Done:  E(UM062X) =  -232.964922178     A.U. after    7 cycles
 Optimization completed.
 SCF Done:  E(UM062X) =  -232.962915604     A.U. after   11 cycles
 SCF Done:  E(UM062X) =  -232.964127783     A.U. after   10 cycles
 SCF Done:  E(UM062X) =  -232.964158751     A.U. after   10 cycles
 SCF Done:  E(UM062X) =  -232.964158885     A.U. after    8 cycles
 SCF Done:  E(UM062X) =  -232.961716045     A.U. after   11 cycles
 SCF Done:  E(UM062X) =  -232.964119464     A.U. after    9 cycles
 SCF Done:  E(UM062X) =  -232.964119632     A.U. after    8 cycles
 SCF Done:  E(UM062X) =  -232.963684261     A.U. after   11 cycles
 SCF Done:  E(UM062X) =  -232.964905678     A.U. after   11 cycles
 SCF Done:  E(UM062X) =  -232.964918721     A.U. after   10 cycles
 SCF Done:  E(UM062X) =  -232.964918818     A.U. after    8 cycles
    -- Stationary point found.
 SCF Done:  E(UM062X) =  -232.964012180     A.U. after   11 cycles
 SCF Done:  E(UM062X) =  -232.965180009     A.U. after   10 cycles
 SCF Done:  E(UM062X) =  -232.965196190     A.U. after   10 cycles
 SCF Done:  E(UM062X) =  -232.965196238     A.U. after    7 cycles
 Optimization completed.
    -- Stationary point found.

                         Standard orientation:
 ---------------------------------------------------------------------
 Center     Atomic      Atomic             Coordinates (Angstroms)
 Number     Number       Type             X           Y           Z
 ---------------------------------------------------------------------
      1          8           0        0.766012   -0.550038   -0.335264
      2          6           0       -0.372485    0.002652    0.323318
      3          6           0       -0.600056    1.434252   -0.132233
      4          6           0       -1.543096   -0.901710    0.000957
      5          6           0        1.962287   -0.088072    0.076486
      6          1           0       -0.175796   -0.014778    1.401968
      7          1           0        0.271284    2.052241    0.079656
      8          1           0       -1.463341    1.860766    0.377856
      9          1           0       -0.784223    1.453005   -1.206794
     10          1           0       -2.445305   -0.541719    0.493734
     11          1           0       -1.715517   -0.912369   -1.075341
     12          1           0       -1.344448   -1.919879    0.330243
     13          1           0        2.044808    0.277538    1.093406
     14          1           0        2.804541   -0.537229   -0.423776
 ---------------------------------------------------------------------

 The electronic state is 2-A.
 Alpha  occ. eigenvalues --  -19.65166 -10.59644 -10.57371 -10.52744 -10.52698
 Alpha  occ. eigenvalues --   -1.19238  -0.89547  -0.79167  -0.75654  -0.67270
 Alpha  occ. eigenvalues --   -0.57916  -0.55713  -0.54382  -0.49707  -0.46289
 Alpha  occ. eigenvalues --   -0.45781  -0.44411  -0.42241  -0.40123  -0.38859
 Alpha  occ. eigenvalues --   -0.22851
 Alpha virt. eigenvalues --    0.01819   0.03467   0.03655   0.03926   0.05868
 Alpha virt. eigenvalues --    0.06590   0.07257   0.07655   0.08314   0.10053
 Alpha virt. eigenvalues --    0.10606   0.11776   0.12702   0.13169   0.13832

  Beta  occ. eigenvalues --  -19.64727 -10.59652 -10.56674 -10.52744 -10.52687
  Beta  occ. eigenvalues --   -1.17842  -0.89230  -0.78985  -0.73519  -0.66409
  Beta  occ. eigenvalues --   -0.56861  -0.55068  -0.52729  -0.48827  -0.46117
  Beta  occ. eigenvalues --   -0.45525  -0.43221  -0.41854  -0.39231  -0.37221
  Beta virt. eigenvalues --   -0.00642   0.01610   0.03203   0.03781   0.04086
  Beta virt. eigenvalues --    0.05973   0.06642   0.07269   0.07668   0.08497
  Beta virt. eigenvalues --    0.09544   0.10600   0.11992   0.12726   0.13098

 Mulliken charges and spin densities:
               1          2
     1  O   -0.046413   0.062481
     2  C   -0.271588   0.040129
     3  C   -0.326927   0.002318
     4  C   -0.420367  -0.000320
     5  C   -0.313612   0.986764
     6  H    0.163535  -0.001208
     7  H    0.145299  -0.009991
     8  H    0.142497  -0.001758
     9  H    0.161754  -0.000441
    10  H    0.141388  -0.000344
    11  H    0.161342  -0.000427
    12  H    0.150343  -0.000625
    13  H    0.148329  -0.041284
    14  H    0.164421  -0.035293
 Sum of Mulliken charges =  -0.00000   1.00000

 Dipole moment (field-independent basis, Debye):
    X=             -0.9015    Y=              0.4774    Z=              0.9914  Tot=              1.4224
 Quadrupole moment (field-independent basis, Debye-Ang):
   XX=            -31.7166   YY=            -34.0872   ZZ=            -32.8291
   XY=             -0.2388   XZ=              0.5335   YZ=              0.1625

 Normal termination of Gaussian 16 at Tue Mar 12 03:29:42 2019.
