 Gaussian 16, Revision A.03,
 Gaussian 16:  EM64L-G16RevA.03 25-Dec-2016

 ----------------------------------------------
 #p m062x/6-311+g(2df,2p) Opt=(CalcFC,ModRedun)
 ----------------------------------------------

 ----------------------------------------
 Gaussian Input Prepared from Scan Object
 ----------------------------------------
 Symbolic Z-matrix:
 Charge =  0 Multiplicity = 2

 SCF Done:  E(UM062X) =  -232.965196238     A.U. after   14 cycles

  Exact polarizability:   0.000   0.000   0.000   0.000   0.000   0.000
 Approx polarizability:  64.422   0.014  58.758   0.071   0.672  59.548

 Optimization completed.
    -- Stationary point found.
 SCF Done:  E(UM062X) =  -232.963848262     A.U. after   13 cycles
 SCF Done:  E(UM062X) =  -232.964936907     A.U. after   11 cycles
 SCF Done:  E(UM062X) =  -232.964946444     A.U. after    9 cycles
 Optimization completed.
 SCF Done:  E(UM062X) =  -232.963181082     A.U. after   13 cycles
 SCF Done:  E(UM062X) =  -232.964329279     A.U. after   11 cycles
 SCF Done:  E(UM062X) =  -232.964341297     A.U. after    9 cycles
 SCF Done:  E(UM062X) =  -232.962396093     A.U. after   13 cycles
 SCF Done:  E(UM062X) =  -232.963621737     A.U. after   11 cycles
 SCF Done:  E(UM062X) =  -232.963630369     A.U. after    9 cycles
 SCF Done:  E(UM062X) =  -232.962802183     A.U. after   12 cycles
 SCF Done:  E(UM062X) =  -232.964001348     A.U. after   12 cycles
 SCF Done:  E(UM062X) =  -232.964003721     A.U. after    8 cycles
 SCF Done:  E(UM062X) =  -232.963808702     A.U. after   12 cycles
 SCF Done:  E(UM062X) =  -232.964902335     A.U. after   11 cycles
 SCF Done:  E(UM062X) =  -232.964908498     A.U. after    9 cycles
 SCF Done:  E(UM062X) =  -232.964908947     A.U. after    8 cycles
    -- Stationary point found.
 SCF Done:  E(UM062X) =  -232.964120700     A.U. after   12 cycles
 SCF Done:  E(UM062X) =  -232.965189077     A.U. after   11 cycles
 SCF Done:  E(UM062X) =  -232.965196165     A.U. after    9 cycles
 Optimization completed.
    -- Stationary point found.

                         Standard orientation:
 ---------------------------------------------------------------------
 Center     Atomic      Atomic             Coordinates (Angstroms)
 Number     Number       Type             X           Y           Z
 ---------------------------------------------------------------------
      1          8           0        0.765964   -0.550122   -0.335333
      2          6           0       -0.372514    0.002607    0.323225
      3          6           0       -0.599688    1.434357   -0.132208
      4          6           0       -1.543285   -0.901553    0.000948
      5          6           0        1.962179   -0.088147    0.076431
      6          1           0       -0.175644   -0.014731    1.401850
      7          1           0        0.271885    2.051971    0.079668
      8          1           0       -1.462829    1.861160    0.377882
      9          1           0       -0.783984    1.453252   -1.206733
     10          1           0       -2.445234   -0.541549    0.494195
     11          1           0       -1.716385   -0.912201   -1.075207
     12          1           0       -1.344590   -1.919688    0.330351
     13          1           0        2.044543    0.277410    1.093407
     14          1           0        2.804370   -0.538237   -0.423123
 ---------------------------------------------------------------------

 The electronic state is 2-A.
 Alpha  occ. eigenvalues --  -19.65166 -10.59644 -10.57371 -10.52746 -10.52697
 Alpha  occ. eigenvalues --   -1.19240  -0.89547  -0.79168  -0.75656  -0.67271
 Alpha  occ. eigenvalues --   -0.57914  -0.55713  -0.54384  -0.49705  -0.46289
 Alpha  occ. eigenvalues --   -0.45782  -0.44413  -0.42242  -0.40122  -0.38860
 Alpha  occ. eigenvalues --   -0.22854
 Alpha virt. eigenvalues --    0.01819   0.03467   0.03655   0.03927   0.05867
 Alpha virt. eigenvalues --    0.06590   0.07257   0.07655   0.08314   0.10054
 Alpha virt. eigenvalues --    0.10606   0.11775   0.12702   0.13169   0.13833

  Beta  occ. eigenvalues --  -19.64727 -10.59653 -10.56674 -10.52745 -10.52687
  Beta  occ. eigenvalues --   -1.17844  -0.89229  -0.78986  -0.73520  -0.66410
  Beta  occ. eigenvalues --   -0.56860  -0.55068  -0.52731  -0.48824  -0.46118
  Beta  occ. eigenvalues --   -0.45525  -0.43222  -0.41855  -0.39231  -0.37221
  Beta virt. eigenvalues --   -0.00643   0.01610   0.03203   0.03780   0.04087
  Beta virt. eigenvalues --    0.05973   0.06642   0.07269   0.07668   0.08497
  Beta virt. eigenvalues --    0.09544   0.10600   0.11992   0.12726   0.13098

 Mulliken charges and spin densities:
               1          2
     1  O   -0.046320   0.062522
     2  C   -0.271519   0.040081
     3  C   -0.326908   0.002354
     4  C   -0.420500  -0.000333
     5  C   -0.313600   0.986635
     6  H    0.163548  -0.001200
     7  H    0.145314  -0.009989
     8  H    0.142498  -0.001758
     9  H    0.161750  -0.000441
    10  H    0.141402  -0.000344
    11  H    0.161348  -0.000426
    12  H    0.150330  -0.000624
    13  H    0.148284  -0.041230
    14  H    0.164373  -0.035249
 Sum of Mulliken charges =  -0.00000   1.00000

 Dipole moment (field-independent basis, Debye):
    X=             -0.9020    Y=              0.4766    Z=              0.9919  Tot=              1.4229
 Quadrupole moment (field-independent basis, Debye-Ang):
   XX=            -31.7173   YY=            -34.0862   ZZ=            -32.8300
   XY=             -0.2407   XZ=              0.5360   YZ=              0.1622

 Normal termination of Gaussian 16 at Tue Apr 23 23:10:54 2019.
