 Gaussian 16, Revision A.03,
 Gaussian 16:  EM64L-G16RevA.03 25-Dec-2016

 ----------------------------------------------------------------------
 #p m062x/6-311+g(2df,2p) opt=(calcfc,verytight,gdiis,maxcycles=900) fr
 eq iop(7/33=1,2/16=3)
 ----------------------------------------------------------------------

 ------------------------------
 Gaussian input prepared by ASE
 ------------------------------
 Symbolic Z-matrix:
 Charge =  0 Multiplicity = 2

 SCF Done:  E(UM062X) =  -232.954545607     A.U. after   14 cycles
 SCF Done:  E(UM062X) =  -232.960597075     A.U. after   12 cycles
 SCF Done:  E(UM062X) =  -232.963482694     A.U. after   13 cycles
 SCF Done:  E(UM062X) =  -232.962475463     A.U. after   16 cycles
 SCF Done:  E(UM062X) =  -232.966792648     A.U. after   13 cycles
 SCF Done:  E(UM062X) =  -232.968664541     A.U. after   15 cycles
 SCF Done:  E(UM062X) =  -232.969735669     A.U. after   13 cycles
 SCF Done:  E(UM062X) =  -232.971362127     A.U. after   14 cycles
 SCF Done:  E(UM062X) =  -232.972113628     A.U. after   13 cycles
 SCF Done:  E(UM062X) =  -232.971506614     A.U. after   16 cycles
 SCF Done:  E(UM062X) =  -232.973616912     A.U. after   10 cycles
 SCF Done:  E(UM062X) =  -232.973618437     A.U. after    8 cycles
 SCF Done:  E(UM062X) =  -232.973618794     A.U. after   10 cycles
 SCF Done:  E(UM062X) =  -232.973618808     A.U. after    8 cycles
 SCF Done:  E(UM062X) =  -232.973618809     A.U. after    5 cycles
 SCF Done:  E(UM062X) =  -232.973618809     A.U. after    6 cycles
 SCF Done:  E(UM062X) =  -232.973618809     A.U. after    5 cycles
 SCF Done:  E(UM062X) =  -232.973618809     A.U. after    3 cycles
 SCF Done:  E(UM062X) =  -232.973618809     A.U. after    2 cycles
 Optimization completed.
    -- Stationary point found.
 Normal termination of Gaussian 16 at Tue Apr  9 01:08:48 2019.

 ----------------------------------------------------------------------
 #P Geom=AllCheck Guess=TCheck SCRF=Check Test GenChk UM062X/6-311+G(2d
 f,2p) Freq
 ----------------------------------------------------------------------

 Structure from the checkpoint file:  "/scratch/underkoffler.c/gaussian_scratch/Gau-20789.chk"
 ------------------------------
 Gaussian input prepared by ASE
 ------------------------------
 Charge =  0 Multiplicity = 2

                         Standard orientation:
 ---------------------------------------------------------------------
 Center     Atomic      Atomic             Coordinates (Angstroms)
 Number     Number       Type             X           Y           Z
 ---------------------------------------------------------------------
      1          8           0        1.696984   -0.830423    0.071373
      2          6           0       -1.292689    0.556565   -0.157301
      3          6           0        0.086590    1.023764    0.338409
      4          6           0       -1.498873   -0.948478   -0.027656
      5          6           0        1.240353    0.383612   -0.349530
      6          1           0       -2.063731    1.084546    0.407635
      7          1           0       -1.405901    0.848136   -1.202880
      8          1           0        0.152613    0.832157    1.419597
      9          1           0        0.160836    2.104415    0.211128
     10          1           0       -2.506488   -1.238186   -0.322222
     11          1           0       -0.802192   -1.494327   -0.665662
     12          1           0       -1.355208   -1.276627    1.005751
     13          1           0        2.002281    0.951369   -0.859714
     14          1           0        1.029636   -1.260881    0.611853
 ---------------------------------------------------------------------

 SCF Done:  E(UM062X) =  -232.973618809     A.U. after    1 cycles

 The electronic state is 2-A.
 Alpha  occ. eigenvalues --  -19.64859 -10.57732 -10.54058 -10.53639 -10.52994
 Alpha  occ. eigenvalues --   -1.17994  -0.90147  -0.81689  -0.73116  -0.67754
 Alpha  occ. eigenvalues --   -0.57475  -0.55780  -0.52216  -0.50547  -0.48136
 Alpha  occ. eigenvalues --   -0.45386  -0.44497  -0.40754  -0.39988  -0.39100
 Alpha  occ. eigenvalues --   -0.21835
 Alpha virt. eigenvalues --    0.01648   0.02718   0.03476   0.04006   0.05869
 Alpha virt. eigenvalues --    0.06468   0.07143   0.07594   0.08457   0.10695
 Alpha virt. eigenvalues --    0.10799   0.11532   0.12236   0.12452   0.15789

  Beta  occ. eigenvalues --  -19.64489 -10.57012 -10.54108 -10.53560 -10.52996
  Beta  occ. eigenvalues --   -1.16666  -0.89664  -0.80763  -0.71609  -0.67303
  Beta  occ. eigenvalues --   -0.56293  -0.54931  -0.51485  -0.49782  -0.46661
  Beta  occ. eigenvalues --   -0.44110  -0.42917  -0.40402  -0.39487  -0.38562
  Beta virt. eigenvalues --   -0.00682   0.01948   0.02765   0.03318   0.03608
  Beta virt. eigenvalues --    0.05800   0.06439   0.06837   0.07252   0.08496
  Beta virt. eigenvalues --    0.10131   0.10739   0.11238   0.11986   0.12240

 Mulliken charges and spin densities:
               1          2
     1  O   -0.274810   0.079482
     2  C   -0.175438   0.013506
     3  C   -0.405136   0.031981
     4  C   -0.527129   0.002878
     5  C   -0.180602   0.908561
     6  H    0.147361   0.003053
     7  H    0.171691  -0.012570
     8  H    0.192698   0.020681
     9  H    0.156477   0.003864
    10  H    0.145191  -0.001038
    11  H    0.164448  -0.003637
    12  H    0.149181  -0.000776
    13  H    0.174022  -0.041713
    14  H    0.262047  -0.004272
 Sum of Mulliken charges =  -0.00000   1.00000

 Dipole moment (field-independent basis, Debye):
    X=             -1.5046    Y=              0.4496    Z=              0.7971  Tot=              1.7610
 Quadrupole moment (field-independent basis, Debye-Ang):
   XX=            -36.2745   YY=            -31.8546   ZZ=            -33.0972
   XY=              2.0560   XZ=              0.0980   YZ=             -1.5216

  Exact polarizability:  58.793   0.416  55.208  -0.914  -1.187  50.019
 Approx polarizability:  62.600  -0.883  62.107  -1.380  -1.745  61.033

                      1                      2                      3
                      A                      A                      A
 Frequencies --    115.3292               136.3164               220.9417
 Red. masses --      2.0427                 2.1586                 1.5519
 Frc consts  --      0.0160                 0.0236                 0.0446
 IR Inten    --      4.9278                 0.6997                28.2113

                      4                      5                      6
                      A                      A                      A
 Frequencies --    311.8739               327.3992               393.7458
 Red. masses --      1.3886                 1.4552                 2.7207
 Frc consts  --      0.0796                 0.0919                 0.2485
 IR Inten    --      0.9292                20.0761                 1.8989

                      7                      8                      9
                      A                      A                      A
 Frequencies --    447.9385               559.6738               785.9155
 Red. masses --      1.3428                 1.6267                 1.2436
 Frc consts  --      0.1587                 0.3002                 0.4525
 IR Inten    --     41.4932                32.2268                 4.6113

                     10                     11                     12
                      A                      A                      A
 Frequencies --    834.0881               891.4583               967.3050
 Red. masses --      2.7104                 1.4257                 2.2685
 Frc consts  --      1.1110                 0.6676                 1.2506
 IR Inten    --      2.6579                 1.7705                23.5937

                     13                     14                     15
                      A                      A                      A
 Frequencies --   1061.7803              1091.7650              1104.6577
 Red. masses --      1.4394                 2.3478                 1.4756
 Frc consts  --      0.9561                 1.6488                 1.0609
 IR Inten    --      2.8640                20.6125                 5.3744

                     16                     17                     18
                      A                      A                      A
 Frequencies --   1207.3513              1238.9952              1288.0591
 Red. masses --      1.3878                 1.5342                 1.3051
 Frc consts  --      1.1919                 1.3876                 1.2758
 IR Inten    --     95.6594                13.1520                 1.5120

                     19                     20                     21
                      A                      A                      A
 Frequencies --   1341.2764              1360.2031              1372.3083
 Red. masses --      1.6217                 1.3824                 1.3512
 Frc consts  --      1.7190                 1.5069                 1.4993
 IR Inten    --      3.7420                 4.6444                 4.1426

                     22                     23                     24
                      A                      A                      A
 Frequencies --   1410.6054              1449.2873              1473.1434
 Red. masses --      1.2937                 1.4540                 1.2020
 Frc consts  --      1.5166                 1.7993                 1.5369
 IR Inten    --      3.4270                64.9871                13.7352

                     25                     26                     27
                      A                      A                      A
 Frequencies --   1494.9449              1509.5436              1523.7978
 Red. masses --      1.0914                 1.0485                 1.0535
 Frc consts  --      1.4371                 1.4078                 1.4412
 IR Inten    --      9.7174                 9.4463                 6.2641

                     28                     29                     30
                      A                      A                      A
 Frequencies --   2982.2553              3043.2336              3058.8712
 Red. masses --      1.0710                 1.0424                 1.0598
 Frc consts  --      5.6120                 5.6878                 5.8427
 IR Inten    --     33.3966                16.0170                31.1782

                     31                     32                     33
                      A                      A                      A
 Frequencies --   3093.9667              3101.7108              3117.3235
 Red. masses --      1.0997                 1.0901                 1.1000
 Frc consts  --      6.2023                 6.1792                 6.2983
 IR Inten    --      6.0582                19.6821                35.5827

                     34                     35                     36
                      A                      A                      A
 Frequencies --   3134.8620              3231.6929              3885.2311
 Red. masses --      1.1006                 1.0904                 1.0659
 Frc consts  --      6.3724                 6.7095                 9.4799
 IR Inten    --     22.8363                11.3581                50.7611

 - Thermochemistry -
 -------------------
 Temperature   298.150 Kelvin.  Pressure   1.00000 Atm.
 Atom     1 has atomic number  8 and mass  15.99491

 Molecular mass:    73.06534 amu.
 Principal axes and moments of inertia in atomic units:
                           1         2         3
     Eigenvalues --   229.81325 504.85437 666.00746
           X            0.99890   0.04682  -0.00069
           Y           -0.04682   0.99886  -0.00943
           Z            0.00025   0.00945   0.99996
 This molecule is an asymmetric top.
 Rotational symmetry number  1.
 Rotational temperatures (Kelvin)      0.37689     0.17156     0.13005
 Rotational constants (GHZ):           7.85308     3.57478     2.70979
 Zero-point vibrational energy     326394.2 (Joules/Mol)
                                   78.01009 (Kcal/Mol)
 Warning -- explicit consideration of   8 degrees of freedom as
           vibrations may cause significant error
 Vibrational temperatures:    165.93   196.13   317.89   448.72   471.05
          (Kelvin)            566.51   644.48   805.25  1130.76  1200.07
                             1282.61  1391.74  1527.67  1570.81  1589.36
                             1737.11  1782.64  1853.23  1929.80  1957.03
                             1974.45  2029.55  2085.20  2119.52  2150.89
                             2171.90  2192.41  4290.80  4378.53  4401.03
                             4451.53  4462.67  4485.13  4510.37  4649.69
                             5589.98

 Zero-point correction=                           0.124317 (Hartree/Particle)
 Thermal correction to Energy=                    0.131039
 Thermal correction to Enthalpy=                  0.131983
 Thermal correction to Gibbs Free Energy=         0.093959
 Sum of electronic and zero-point Energies=           -232.849302
 Sum of electronic and thermal Energies=              -232.842580
 Sum of electronic and thermal Enthalpies=            -232.841636
 Sum of electronic and thermal Free Energies=         -232.879660

                     E (Thermal)             CV                S
                      KCal/Mol        Cal/Mol-Kelvin    Cal/Mol-Kelvin
 Total                   82.228             23.332             80.028
 Electronic               0.000              0.000              1.377
 Translational            0.889              2.981             38.783
 Rotational               0.889              2.981             25.850
 Vibrational             80.451             17.370             14.019
 Vibration     1          0.608              1.937              3.177
 Vibration     2          0.614              1.917              2.855
 Vibration     3          0.648              1.809              1.951
 Vibration     4          0.700              1.651              1.352
 Vibration     5          0.711              1.621              1.273
 Vibration     6          0.761              1.484              0.986
 Vibration     7          0.807              1.365              0.802
 Vibration     8          0.915              1.119              0.524

                           ! Non-Optimized Parameters !
 Normal termination of Gaussian 16 at Tue Apr  9 01:14:21 2019.
