 Gaussian 16, Revision A.03,
 Gaussian 16:  EM64L-G16RevA.03 25-Dec-2016

 ----------------------------------------------
 #p m062x/6-311+g(2df,2p) Opt=(CalcFC,ModRedun)
 ----------------------------------------------

 ----------------------------------------
 Gaussian Input Prepared from Scan Object
 ----------------------------------------
 Symbolic Z-matrix:
 Charge =  0 Multiplicity = 2

 SCF Done:  E(UM062X) =  -232.974897498     A.U. after   14 cycles

  Exact polarizability:   0.000   0.000   0.000   0.000   0.000   0.000
 Approx polarizability:  61.175  -2.248  60.538   0.688   0.341  61.285

 Optimization completed.
    -- Stationary point found.
 SCF Done:  E(UM062X) =  -232.974557393     A.U. after   12 cycles
 SCF Done:  E(UM062X) =  -232.974736296     A.U. after   11 cycles
 SCF Done:  E(UM062X) =  -232.974736402     A.U. after    8 cycles
 Optimization completed.
 SCF Done:  E(UM062X) =  -232.974040067     A.U. after   12 cycles
 SCF Done:  E(UM062X) =  -232.974241416     A.U. after   11 cycles
 SCF Done:  E(UM062X) =  -232.974241565     A.U. after    8 cycles
 SCF Done:  E(UM062X) =  -232.973186016     A.U. after   12 cycles
 SCF Done:  E(UM062X) =  -232.973420516     A.U. after   11 cycles
 SCF Done:  E(UM062X) =  -232.973420645     A.U. after    8 cycles
 SCF Done:  E(UM062X) =  -232.974241482     A.U. after   11 cycles
 SCF Done:  E(UM062X) =  -232.974364099     A.U. after   11 cycles
 SCF Done:  E(UM062X) =  -232.974364151     A.U. after    9 cycles
 SCF Done:  E(UM062X) =  -232.974364240     A.U. after    9 cycles
 SCF Done:  E(UM062X) =  -232.974615853     A.U. after   11 cycles
 SCF Done:  E(UM062X) =  -232.974755854     A.U. after   11 cycles
 SCF Done:  E(UM062X) =  -232.974755894     A.U. after    9 cycles
    -- Stationary point found.
 SCF Done:  E(UM062X) =  -232.974738491     A.U. after   12 cycles
 SCF Done:  E(UM062X) =  -232.974897414     A.U. after   11 cycles
 SCF Done:  E(UM062X) =  -232.974897493     A.U. after    9 cycles
 Optimization completed.
    -- Stationary point found.

                         Standard orientation:
 ---------------------------------------------------------------------
 Center     Atomic      Atomic             Coordinates (Angstroms)
 Number     Number       Type             X           Y           Z
 ---------------------------------------------------------------------
      1          8           0        1.692075   -0.654655   -0.408989
      2          6           0       -1.076230    0.279354   -0.596049
      3          6           0        0.072210    1.043119    0.074328
      4          6           0       -1.761930   -0.698109    0.350942
      5          6           0        1.157987    0.153211    0.556436
      6          1           0       -1.800640    1.001792   -0.975657
      7          1           0       -0.683777   -0.257734   -1.460586
      8          1           0        0.474405    1.774764   -0.640192
      9          1           0       -0.307297    1.611101    0.926374
     10          1           0       -2.148145   -0.180605    1.230964
     11          1           0       -2.596200   -1.202058   -0.135745
     12          1           0       -1.060752   -1.458226    0.695307
     13          1           0        1.814581    0.447743    1.365973
     14          1           0        2.419000   -1.164993   -0.048471
 ---------------------------------------------------------------------

 The electronic state is 2-A.
 Alpha  occ. eigenvalues --  -19.65044 -10.57883 -10.52981 -10.52269 -10.51230
 Alpha  occ. eigenvalues --   -1.18062  -0.89324  -0.80735  -0.71842  -0.65406
 Alpha  occ. eigenvalues --   -0.61209  -0.53231  -0.51968  -0.49066  -0.46891
 Alpha  occ. eigenvalues --   -0.44539  -0.43277  -0.39664  -0.38711  -0.38437
 Alpha  occ. eigenvalues --   -0.22282
 Alpha virt. eigenvalues --    0.01006   0.02786   0.03542   0.04266   0.06218
 Alpha virt. eigenvalues --    0.06341   0.07783   0.08180   0.08549   0.10956
 Alpha virt. eigenvalues --    0.11590   0.12295   0.12553   0.13008   0.15803

  Beta  occ. eigenvalues --  -19.64693 -10.57134 -10.53031 -10.52232 -10.51224
  Beta  occ. eigenvalues --   -1.16777  -0.88780  -0.79786  -0.70582  -0.64954
  Beta  occ. eigenvalues --   -0.59783  -0.52167  -0.50996  -0.48092  -0.45145
  Beta  occ. eigenvalues --   -0.43381  -0.42445  -0.38923  -0.38566  -0.38107
  Beta virt. eigenvalues --   -0.00125   0.01560   0.02853   0.03554   0.03874
  Beta virt. eigenvalues --    0.06199   0.06347   0.07636   0.08125   0.08475
  Beta virt. eigenvalues --    0.10736   0.11126   0.12364   0.12479   0.12824

 Mulliken charges and spin densities:
               1          2
     1  O   -0.280997   0.070499
     2  C   -0.224354  -0.006836
     3  C   -0.301150  -0.027736
     4  C   -0.458622   0.023720
     5  C   -0.225524   0.962512
     6  H    0.144672  -0.001943
     7  H    0.181082  -0.001374
     8  H    0.161437   0.040275
     9  H    0.164706   0.000468
    10  H    0.132763  -0.003571
    11  H    0.133919  -0.000450
    12  H    0.145435  -0.011992
    13  H    0.161757  -0.038912
    14  H    0.264875  -0.004660
 Sum of Mulliken charges =  -0.00000   1.00000

 Dipole moment (field-independent basis, Debye):
    X=              0.9942    Y=              0.0193    Z=              0.8315  Tot=              1.2962
 Quadrupole moment (field-independent basis, Debye-Ang):
   XX=            -28.5981   YY=            -31.9987   ZZ=            -34.0931
   XY=             -2.5935   XZ=              2.4136   YZ=              0.0199

 Normal termination of Gaussian 16 at Fri Apr 12 19:18:22 2019.
