 Gaussian 16, Revision A.03,
 Gaussian 16:  EM64L-G16RevA.03 25-Dec-2016

 ----------------------------------------------
 #p m062x/6-311+g(2df,2p) Opt=(CalcFC,ModRedun)
 ----------------------------------------------

 ----------------------------------------
 Gaussian Input Prepared from Scan Object
 ----------------------------------------
 Symbolic Z-matrix:
 Charge =  0 Multiplicity = 2

 SCF Done:  E(UM062X) =  -232.974897498     A.U. after   14 cycles

  Exact polarizability:   0.000   0.000   0.000   0.000   0.000   0.000
 Approx polarizability:  61.175  -2.248  60.538   0.688   0.341  61.285

 Optimization completed.
    -- Stationary point found.
 SCF Done:  E(UM062X) =  -232.967249314     A.U. after   13 cycles
 SCF Done:  E(UM062X) =  -232.973637043     A.U. after   14 cycles
 SCF Done:  E(UM062X) =  -232.974104087     A.U. after   12 cycles
 SCF Done:  E(UM062X) =  -232.974125620     A.U. after   11 cycles
 SCF Done:  E(UM062X) =  -232.974150112     A.U. after   12 cycles
 SCF Done:  E(UM062X) =  -232.974153109     A.U. after   12 cycles
 SCF Done:  E(UM062X) =  -232.974157294     A.U. after   11 cycles
 SCF Done:  E(UM062X) =  -232.974157583     A.U. after   11 cycles
 Optimization completed.
 SCF Done:  E(UM062X) =  -232.966695238     A.U. after   14 cycles
    -- Stationary point found.
 SCF Done:  E(UM062X) =  -232.961131449     A.U. after   13 cycles
 SCF Done:  E(UM062X) =  -232.974065465     A.U. after   12 cycles
 SCF Done:  E(UM062X) =  -232.974439944     A.U. after   13 cycles
 SCF Done:  E(UM062X) =  -232.973553134     A.U. after   12 cycles
 SCF Done:  E(UM062X) =  -232.973212635     A.U. after   13 cycles
 SCF Done:  E(UM062X) =  -232.972305169     A.U. after   12 cycles
 SCF Done:  E(UM062X) =  -232.974568491     A.U. after   10 cycles
 SCF Done:  E(UM062X) =  -232.974892251     A.U. after   12 cycles
 SCF Done:  E(UM062X) =  -232.974897362     A.U. after    9 cycles
 SCF Done:  E(UM062X) =  -232.974897467     A.U. after    9 cycles
 Optimization completed.
    -- Stationary point found.

                         Standard orientation:
 ---------------------------------------------------------------------
 Center     Atomic      Atomic             Coordinates (Angstroms)
 Number     Number       Type             X           Y           Z
 ---------------------------------------------------------------------
      1          8           0        1.692087   -0.654530   -0.409027
      2          6           0       -1.076156    0.279336   -0.596081
      3          6           0        0.072340    1.043033    0.074307
      4          6           0       -1.762060   -0.697953    0.350914
      5          6           0        1.157861    0.152984    0.556619
      6          1           0       -1.800422    1.001813   -0.975887
      7          1           0       -0.683618   -0.257956   -1.460454
      8          1           0        0.474752    1.774499   -0.640264
      9          1           0       -0.307034    1.611243    0.926281
     10          1           0       -2.148717   -0.180286    1.230646
     11          1           0       -2.596035   -1.202198   -0.135973
     12          1           0       -1.060860   -1.457838    0.695774
     13          1           0        1.814441    0.447675    1.366126
     14          1           0        2.418885   -1.165111   -0.048589
 ---------------------------------------------------------------------

 The electronic state is 2-A.
 Alpha  occ. eigenvalues --  -19.65044 -10.57883 -10.52980 -10.52269 -10.51230
 Alpha  occ. eigenvalues --   -1.18062  -0.89324  -0.80736  -0.71841  -0.65405
 Alpha  occ. eigenvalues --   -0.61209  -0.53232  -0.51967  -0.49067  -0.46891
 Alpha  occ. eigenvalues --   -0.44539  -0.43276  -0.39664  -0.38711  -0.38437
 Alpha  occ. eigenvalues --   -0.22285
 Alpha virt. eigenvalues --    0.01007   0.02786   0.03542   0.04266   0.06218
 Alpha virt. eigenvalues --    0.06341   0.07782   0.08180   0.08549   0.10955
 Alpha virt. eigenvalues --    0.11590   0.12295   0.12553   0.13008   0.15803

  Beta  occ. eigenvalues --  -19.64693 -10.57134 -10.53030 -10.52232 -10.51224
  Beta  occ. eigenvalues --   -1.16778  -0.88780  -0.79787  -0.70582  -0.64953
  Beta  occ. eigenvalues --   -0.59783  -0.52167  -0.50995  -0.48092  -0.45145
  Beta  occ. eigenvalues --   -0.43381  -0.42444  -0.38923  -0.38565  -0.38107
  Beta virt. eigenvalues --   -0.00126   0.01560   0.02853   0.03554   0.03873
  Beta virt. eigenvalues --    0.06199   0.06347   0.07636   0.08125   0.08475
  Beta virt. eigenvalues --    0.10736   0.11126   0.12364   0.12479   0.12825

 Mulliken charges and spin densities:
               1          2
     1  O   -0.280992   0.070496
     2  C   -0.224382  -0.006839
     3  C   -0.301143  -0.027725
     4  C   -0.458584   0.023737
     5  C   -0.225547   0.962478
     6  H    0.144661  -0.001944
     7  H    0.181095  -0.001376
     8  H    0.161475   0.040261
     9  H    0.164678   0.000464
    10  H    0.132765  -0.003567
    11  H    0.133914  -0.000450
    12  H    0.145423  -0.012008
    13  H    0.161753  -0.038867
    14  H    0.264885  -0.004662
 Sum of Mulliken charges =  -0.00000   1.00000

 Dipole moment (field-independent basis, Debye):
    X=              0.9943    Y=              0.0191    Z=              0.8314  Tot=              1.2962
 Quadrupole moment (field-independent basis, Debye-Ang):
   XX=            -28.5996   YY=            -31.9975   ZZ=            -34.0933
   XY=             -2.5936   XZ=              2.4134   YZ=              0.0205

 Normal termination of Gaussian 16 at Fri Mar 29 09:20:15 2019.
