 Gaussian 16, Revision A.03,
 Gaussian 16:  EM64L-G16RevA.03 25-Dec-2016

 ----------------------------------------------
 #p m062x/6-311+g(2df,2p) Opt=(CalcFC,ModRedun)
 ----------------------------------------------

 ----------------------------------------
 Gaussian Input Prepared from Scan Object
 ----------------------------------------
 Symbolic Z-matrix:
 Charge =  0 Multiplicity = 2

 SCF Done:  E(UM062X) =  -232.974897498     A.U. after   14 cycles

  Exact polarizability:   0.000   0.000   0.000   0.000   0.000   0.000
 Approx polarizability:  61.175  -2.248  60.538   0.688   0.341  61.285

 Optimization completed.
    -- Stationary point found.
 SCF Done:  E(UM062X) =  -232.973457594     A.U. after   12 cycles
 SCF Done:  E(UM062X) =  -232.974615088     A.U. after   12 cycles
 SCF Done:  E(UM062X) =  -232.974633831     A.U. after   10 cycles
 Optimization completed.
 SCF Done:  E(UM062X) =  -232.972671050     A.U. after   11 cycles
 SCF Done:  E(UM062X) =  -232.973866519     A.U. after   12 cycles
 SCF Done:  E(UM062X) =  -232.973890959     A.U. after   10 cycles
 SCF Done:  E(UM062X) =  -232.971517616     A.U. after   11 cycles
 SCF Done:  E(UM062X) =  -232.972792351     A.U. after   12 cycles
 SCF Done:  E(UM062X) =  -232.972825224     A.U. after   10 cycles
 SCF Done:  E(UM062X) =  -232.972799837     A.U. after   10 cycles
 SCF Done:  E(UM062X) =  -232.972537938     A.U. after   12 cycles
 SCF Done:  E(UM062X) =  -232.973862507     A.U. after   11 cycles
 SCF Done:  E(UM062X) =  -232.973878666     A.U. after   10 cycles
 SCF Done:  E(UM062X) =  -232.973392413     A.U. after   12 cycles
 SCF Done:  E(UM062X) =  -232.974613918     A.U. after   12 cycles
 SCF Done:  E(UM062X) =  -232.974628023     A.U. after    9 cycles
    -- Stationary point found.
 SCF Done:  E(UM062X) =  -232.973719775     A.U. after   12 cycles
 SCF Done:  E(UM062X) =  -232.974884043     A.U. after   12 cycles
 SCF Done:  E(UM062X) =  -232.974897463     A.U. after    9 cycles
 Optimization completed.
    -- Stationary point found.

                         Standard orientation:
 ---------------------------------------------------------------------
 Center     Atomic      Atomic             Coordinates (Angstroms)
 Number     Number       Type             X           Y           Z
 ---------------------------------------------------------------------
      1          8           0        1.691927   -0.654665   -0.409022
      2          6           0       -1.076266    0.279339   -0.596113
      3          6           0        0.072107    1.043158    0.074346
      4          6           0       -1.761641   -0.698232    0.350970
      5          6           0        1.157980    0.153342    0.556367
      6          1           0       -1.800882    1.001739   -0.975400
      7          1           0       -0.683908   -0.257463   -1.460872
      8          1           0        0.474118    1.775003   -0.640081
      9          1           0       -0.307473    1.610983    0.926470
     10          1           0       -2.147468   -0.180672    1.231148
     11          1           0       -2.596102   -1.202507   -0.135081
     12          1           0       -1.060045   -1.458058    0.695069
     13          1           0        1.814545    0.447797    1.365949
     14          1           0        2.418723   -1.165144   -0.048439
 ---------------------------------------------------------------------

 The electronic state is 2-A.
 Alpha  occ. eigenvalues --  -19.65045 -10.57882 -10.52982 -10.52269 -10.51230
 Alpha  occ. eigenvalues --   -1.18062  -0.89324  -0.80735  -0.71841  -0.65406
 Alpha  occ. eigenvalues --   -0.61210  -0.53232  -0.51968  -0.49067  -0.46891
 Alpha  occ. eigenvalues --   -0.44538  -0.43276  -0.39665  -0.38712  -0.38438
 Alpha  occ. eigenvalues --   -0.22281
 Alpha virt. eigenvalues --    0.01006   0.02786   0.03542   0.04266   0.06218
 Alpha virt. eigenvalues --    0.06341   0.07783   0.08180   0.08549   0.10956
 Alpha virt. eigenvalues --    0.11590   0.12295   0.12553   0.13007   0.15802

  Beta  occ. eigenvalues --  -19.64693 -10.57134 -10.53032 -10.52232 -10.51223
  Beta  occ. eigenvalues --   -1.16777  -0.88781  -0.79785  -0.70582  -0.64954
  Beta  occ. eigenvalues --   -0.59783  -0.52167  -0.50997  -0.48091  -0.45143
  Beta  occ. eigenvalues --   -0.43381  -0.42444  -0.38923  -0.38567  -0.38108
  Beta virt. eigenvalues --   -0.00124   0.01560   0.02853   0.03554   0.03873
  Beta virt. eigenvalues --    0.06199   0.06346   0.07636   0.08125   0.08475
  Beta virt. eigenvalues --    0.10736   0.11127   0.12364   0.12479   0.12824

 Mulliken charges and spin densities:
               1          2
     1  O   -0.281029   0.070496
     2  C   -0.224378  -0.006840
     3  C   -0.301112  -0.027737
     4  C   -0.458623   0.023743
     5  C   -0.225513   0.962516
     6  H    0.144676  -0.001943
     7  H    0.181062  -0.001368
     8  H    0.161420   0.040287
     9  H    0.164723   0.000467
    10  H    0.132764  -0.003579
    11  H    0.133921  -0.000451
    12  H    0.145441  -0.011997
    13  H    0.161773  -0.038934
    14  H    0.264875  -0.004660
 Sum of Mulliken charges =  -0.00000   1.00000

 Dipole moment (field-independent basis, Debye):
    X=              0.9941    Y=              0.0191    Z=              0.8318  Tot=              1.2963
 Quadrupole moment (field-independent basis, Debye-Ang):
   XX=            -28.5994   YY=            -31.9982   ZZ=            -34.0931
   XY=             -2.5938   XZ=              2.4135   YZ=              0.0200

 Normal termination of Gaussian 16 at Fri Apr 12 19:05:49 2019.
