 Gaussian 16, Revision A.03,
 Gaussian 16:  EM64L-G16RevA.03 25-Dec-2016

 ----------------------------------------------------------------------
 #p m062x/6-311+g(2df,2p) opt=(calcfc,verytight,gdiis,maxcycles=900) fr
 eq iop(7/33=1,2/16=3)
 ----------------------------------------------------------------------

 ------------------------------
 Gaussian input prepared by ASE
 ------------------------------
 Symbolic Z-matrix:
 Charge =  0 Multiplicity = 2

 SCF Done:  E(UM062X) =  -232.974053628     A.U. after   14 cycles
 SCF Done:  E(UM062X) =  -232.974054142     A.U. after    9 cycles
 SCF Done:  E(UM062X) =  -232.974054146     A.U. after    7 cycles
 SCF Done:  E(UM062X) =  -232.974054146     A.U. after    3 cycles
 SCF Done:  E(UM062X) =  -232.974054146     A.U. after    3 cycles
 SCF Done:  E(UM062X) =  -232.974054146     A.U. after    2 cycles
 Optimization completed.
    -- Stationary point found.
 Normal termination of Gaussian 16 at Mon Mar 11 15:51:31 2019.

 ----------------------------------------------------------------------
 #P Geom=AllCheck Guess=TCheck SCRF=Check Test GenChk UM062X/6-311+G(2d
 f,2p) Freq
 ----------------------------------------------------------------------

 Structure from the checkpoint file:  "/scratch/underkoffler.c/gaussian_scratch/Gau-16005.chk"
 ------------------------------
 Gaussian input prepared by ASE
 ------------------------------
 Charge =  0 Multiplicity = 2

                         Standard orientation:
 ---------------------------------------------------------------------
 Center     Atomic      Atomic             Coordinates (Angstroms)
 Number     Number       Type             X           Y           Z
 ---------------------------------------------------------------------
      1          8           0       -2.314938   -0.333491   -0.074478
      2          6           0        1.331223    0.577038    0.246148
      3          6           0       -0.108520    0.747480   -0.239154
      4          6           0        1.946833   -0.749960   -0.184158
      5          6           0       -1.031532   -0.242584    0.378697
      6          1           0        1.933572    1.403398   -0.133355
      7          1           0        1.348444    0.658094    1.335840
      8          1           0       -0.449422    1.771429   -0.027862
      9          1           0       -0.135017    0.637643   -1.331186
     10          1           0        1.947726   -0.838039   -1.271874
     11          1           0        2.976568   -0.838488    0.159940
     12          1           0        1.380845   -1.591723    0.213737
     13          1           0       -0.955678   -0.479925    1.431501
     14          1           0       -2.355567   -0.046312   -0.990121
 ---------------------------------------------------------------------

 SCF Done:  E(UM062X) =  -232.974054146     A.U. after    1 cycles

 The electronic state is 2-A.
 Alpha  occ. eigenvalues --  -19.64870 -10.57741 -10.54018 -10.53540 -10.52093
 Alpha  occ. eigenvalues --   -1.17968  -0.90237  -0.80883  -0.73063  -0.67547
 Alpha  occ. eigenvalues --   -0.58093  -0.54034  -0.53110  -0.50113  -0.47522
 Alpha  occ. eigenvalues --   -0.45993  -0.43013  -0.40618  -0.39867  -0.38921
 Alpha  occ. eigenvalues --   -0.22236
 Alpha virt. eigenvalues --    0.01556   0.02337   0.03354   0.03661   0.06035
 Alpha virt. eigenvalues --    0.06811   0.07113   0.07670   0.08231   0.10910
 Alpha virt. eigenvalues --    0.11184   0.11478   0.11618   0.12138   0.15439

  Beta  occ. eigenvalues --  -19.64510 -10.56982 -10.54059 -10.53534 -10.52084
  Beta  occ. eigenvalues --   -1.16663  -0.89783  -0.79998  -0.71520  -0.67197
  Beta  occ. eigenvalues --   -0.57010  -0.52768  -0.51998  -0.49679  -0.45906
  Beta  occ. eigenvalues --   -0.44045  -0.42383  -0.39937  -0.39740  -0.38385
  Beta virt. eigenvalues --    0.00542   0.02071   0.02273   0.03330   0.03560
  Beta virt. eigenvalues --    0.06056   0.06637   0.07031   0.07467   0.08330
  Beta virt. eigenvalues --    0.10854   0.11020   0.11306   0.11716   0.12067

 Mulliken charges and spin densities:
               1          2
     1  O   -0.306544   0.088055
     2  C   -0.299290   0.037566
     3  C   -0.182651  -0.073658
     4  C   -0.444452   0.024667
     5  C   -0.224953   0.939969
     6  H    0.148447  -0.002584
     7  H    0.165541  -0.005085
     8  H    0.152261   0.046179
     9  H    0.155199   0.012857
    10  H    0.134576  -0.002828
    11  H    0.134826   0.000375
    12  H    0.146265  -0.013170
    13  H    0.169414  -0.048405
    14  H    0.251362  -0.003936
 Sum of Mulliken charges =  -0.00000   1.00000

 Dipole moment (field-independent basis, Debye):
    X=              0.9297    Y=              1.0166    Z=             -0.9766  Tot=              1.6887
 Quadrupole moment (field-independent basis, Debye-Ang):
   XX=            -36.0547   YY=            -34.3756   ZZ=            -30.2325
   XY=             -1.3946   XZ=              3.1690   YZ=             -0.5508

  Exact polarizability:  61.570  -0.498  51.708   1.606  -0.976  49.732
 Approx polarizability:  62.575   0.618  59.406   1.751  -1.383  61.097

                      1                      2                      3
                      A                      A                      A
 Frequencies --     77.5028               121.5763               208.9416
 Red. masses --      2.2141                 1.8340                 1.5239
 Frc consts  --      0.0078                 0.0160                 0.0392
 IR Inten    --      3.1782                 1.5069                 1.8671

                      4                      5                      6
                      A                      A                      A
 Frequencies --    288.2985               329.2143               358.4528
 Red. masses --      1.6507                 1.3024                 2.5265
 Frc consts  --      0.0808                 0.0832                 0.1913
 IR Inten    --      3.5743                67.5899                 1.4511

                      7                      8                      9
                      A                      A                      A
 Frequencies --    496.6326               586.5793               777.5958
 Red. masses --      2.6547                 1.2167                 1.1897
 Frc consts  --      0.3858                 0.2466                 0.4238
 IR Inten    --      1.7396                49.0894                 3.2465

                     10                     11                     12
                      A                      A                      A
 Frequencies --    871.9639               912.1725               979.7093
 Red. masses --      2.0736                 1.4514                 1.9008
 Frc consts  --      0.9289                 0.7115                 1.0749
 IR Inten    --      0.3538                 0.2165                22.6869

                     13                     14                     15
                      A                      A                      A
 Frequencies --   1083.9659              1094.7112              1113.5903
 Red. masses --      1.8057                 1.7515                 1.5201
 Frc consts  --      1.2500                 1.2367                 1.1106
 IR Inten    --     21.8435                 0.4902                31.2967

                     16                     17                     18
                      A                      A                      A
 Frequencies --   1213.4003              1242.3571              1265.4970
 Red. masses --      1.7250                 1.4057                 1.6795
 Frc consts  --      1.4964                 1.2783                 1.5847
 IR Inten    --     80.3191                32.6056                 4.7411

                     19                     20                     21
                      A                      A                      A
 Frequencies --   1314.5751              1367.5879              1384.5859
 Red. masses --      1.3238                 1.3092                 1.5090
 Frc consts  --      1.3479                 1.4427                 1.7044
 IR Inten    --      0.8608                14.4277                 2.1481

                     22                     23                     24
                      A                      A                      A
 Frequencies --   1415.8930              1450.1011              1482.3902
 Red. masses --      1.2658                 1.6558                 1.1352
 Frc consts  --      1.4951                 2.0514                 1.4697
 IR Inten    --     11.4693                77.8620                 2.1884

                     25                     26                     27
                      A                      A                      A
 Frequencies --   1498.5325              1503.1843              1512.7380
 Red. masses --      1.0672                 1.0427                 1.0797
 Frc consts  --      1.4120                 1.3881                 1.4557
 IR Inten    --      3.0700                 9.5927                10.1862

                     28                     29                     30
                      A                      A                      A
 Frequencies --   2974.6031              3015.0699              3058.9002
 Red. masses --      1.0659                 1.0907                 1.0563
 Frc consts  --      5.5566                 5.8419                 5.8235
 IR Inten    --     41.1485                18.4191                12.5436

                     31                     32                     33
                      A                      A                      A
 Frequencies --   3062.8059              3095.8405              3128.8098
 Red. masses --      1.0435                 1.1005                 1.1015
 Frc consts  --      5.7674                 6.2144                 6.3532
 IR Inten    --     38.7215                12.8018                31.2709

                     34                     35                     36
                      A                      A                      A
 Frequencies --   3139.5495              3197.1010              3886.6587
 Red. masses --      1.1024                 1.0884                 1.0659
 Frc consts  --      6.4021                 6.5547                 9.4871
 IR Inten    --     27.7981                13.7981                51.2062

 - Thermochemistry -
 -------------------
 Temperature   298.150 Kelvin.  Pressure   1.00000 Atm.
 Atom     1 has atomic number  8 and mass  15.99491

 Molecular mass:    73.06534 amu.
 Principal axes and moments of inertia in atomic units:
                           1         2         3
     Eigenvalues --   150.16607 728.43106 793.07496
           X            0.99982  -0.01819   0.00547
           Y            0.01827   0.99972  -0.01517
           Z           -0.00519   0.01527   0.99987
 This molecule is an asymmetric top.
 Rotational symmetry number  1.
 Rotational temperatures (Kelvin)      0.57679     0.11890     0.10921
 Rotational constants (GHZ):          12.01830     2.47757     2.27562
 Zero-point vibrational energy     326048.7 (Joules/Mol)
                                   77.92751 (Kcal/Mol)
 Warning -- explicit consideration of   8 degrees of freedom as
           vibrations may cause significant error
 Vibrational temperatures:    111.51   174.92   300.62   414.80   473.67
          (Kelvin)            515.73   714.54   843.96  1118.79  1254.56
                             1312.41  1409.58  1559.59  1575.05  1602.21
                             1745.81  1787.47  1820.77  1891.38  1967.65
                             1992.11  2037.15  2086.37  2132.83  2156.05
                             2162.75  2176.49  4279.79  4338.01  4401.08
                             4406.69  4454.22  4501.66  4517.11  4599.92
                             5592.03

 Zero-point correction=                           0.124185 (Hartree/Particle)
 Thermal correction to Energy=                    0.131018
 Thermal correction to Enthalpy=                  0.131963
 Thermal correction to Gibbs Free Energy=         0.093345
 Sum of electronic and zero-point Energies=           -232.849869
 Sum of electronic and thermal Energies=              -232.843036
 Sum of electronic and thermal Enthalpies=            -232.842092
 Sum of electronic and thermal Free Energies=         -232.880709

                     E (Thermal)             CV                S
                      KCal/Mol        Cal/Mol-Kelvin    Cal/Mol-Kelvin
 Total                   82.215             23.234             81.278
 Electronic               0.000              0.000              1.377
 Translational            0.889              2.981             38.783
 Rotational               0.889              2.981             25.965
 Vibrational             80.438             17.272             15.153
 Vibration     1          0.599              1.964              3.953
 Vibration     2          0.609              1.931              3.075
 Vibration     3          0.642              1.827              2.053
 Vibration     4          0.685              1.695              1.484
 Vibration     5          0.712              1.617              1.264
 Vibration     6          0.733              1.558              1.129
 Vibration     7          0.852              1.257              0.667
 Vibration     8          0.944              1.060              0.473

 Optimization completed.
    -- Stationary point found.
 Normal termination of Gaussian 16 at Mon Mar 11 16:00:36 2019.
