 Gaussian 16, Revision A.03,
 Gaussian 16:  EM64L-G16RevA.03 25-Dec-2016

 ----------------------------------------------
 #p m062x/6-311+g(2df,2p) Opt=(CalcFC,ModRedun)
 ----------------------------------------------

 ----------------------------------------
 Gaussian Input Prepared from Scan Object
 ----------------------------------------
 Symbolic Z-matrix:
 Charge =  0 Multiplicity = 2

 SCF Done:  E(UM062X) =  -232.974897498     A.U. after   14 cycles

  Exact polarizability:   0.000   0.000   0.000   0.000   0.000   0.000
 Approx polarizability:  61.175  -2.248  60.538   0.688   0.341  61.285

 Optimization completed.
    -- Stationary point found.
 SCF Done:  E(UM062X) =  -232.960796288     A.U. after   13 cycles
 SCF Done:  E(UM062X) =  -232.970142883     A.U. after   12 cycles
 SCF Done:  E(UM062X) =  -232.972673383     A.U. after   12 cycles
 SCF Done:  E(UM062X) =  -232.972706053     A.U. after   10 cycles
 SCF Done:  E(UM062X) =  -232.972706636     A.U. after   10 cycles
 Optimization completed.
 SCF Done:  E(UM062X) =  -232.954947186     A.U. after   13 cycles
 SCF Done:  E(UM062X) =  -232.965126101     A.U. after   13 cycles
 SCF Done:  E(UM062X) =  -232.969472717     A.U. after   11 cycles
 SCF Done:  E(UM062X) =  -232.969570194     A.U. after   12 cycles
 SCF Done:  E(UM062X) =  -232.971758161     A.U. after   12 cycles
 SCF Done:  E(UM062X) =  -232.972026876     A.U. after   12 cycles
 SCF Done:  E(UM062X) =  -232.972046657     A.U. after    9 cycles
 SCF Done:  E(UM062X) =  -232.972048072     A.U. after    9 cycles
    -- Stationary point found.
 SCF Done:  E(UM062X) =  -232.963432259     A.U. after   13 cycles
 SCF Done:  E(UM062X) =  -232.972935477     A.U. after   13 cycles
 SCF Done:  E(UM062X) =  -232.974875655     A.U. after   12 cycles
 SCF Done:  E(UM062X) =  -232.974896197     A.U. after   10 cycles
 SCF Done:  E(UM062X) =  -232.974897419     A.U. after   10 cycles
 SCF Done:  E(UM062X) =  -232.974897508     A.U. after    9 cycles
 Optimization completed.
    -- Stationary point found.

                         Standard orientation:
 ---------------------------------------------------------------------
 Center     Atomic      Atomic             Coordinates (Angstroms)
 Number     Number       Type             X           Y           Z
 ---------------------------------------------------------------------
      1          8           0        1.691178   -0.655337   -0.408840
      2          6           0       -1.076133    0.279333   -0.596045
      3          6           0        0.072221    1.043442    0.074100
      4          6           0       -1.761387   -0.698196    0.351264
      5          6           0        1.158244    0.153781    0.556183
      6          1           0       -1.800834    1.001488   -0.975606
      7          1           0       -0.683717   -0.257743   -1.460580
      8          1           0        0.474155    1.775234   -0.640420
      9          1           0       -0.307325    1.611430    0.926135
     10          1           0       -2.147836   -0.180645    1.231160
     11          1           0       -2.595422   -1.202669   -0.135280
     12          1           0       -1.059843   -1.457905    0.695781
     13          1           0        1.815630    0.449021    1.364820
     14          1           0        2.418095   -1.165677   -0.048305
 ---------------------------------------------------------------------

 The electronic state is 2-A.
 Alpha  occ. eigenvalues --  -19.65044 -10.57883 -10.52981 -10.52269 -10.51230
 Alpha  occ. eigenvalues --   -1.18062  -0.89323  -0.80734  -0.71841  -0.65406
 Alpha  occ. eigenvalues --   -0.61209  -0.53230  -0.51969  -0.49065  -0.46891
 Alpha  occ. eigenvalues --   -0.44538  -0.43276  -0.39664  -0.38712  -0.38437
 Alpha  occ. eigenvalues --   -0.22281
 Alpha virt. eigenvalues --    0.01006   0.02786   0.03542   0.04267   0.06218
 Alpha virt. eigenvalues --    0.06341   0.07783   0.08180   0.08549   0.10956
 Alpha virt. eigenvalues --    0.11590   0.12295   0.12554   0.13008   0.15803

  Beta  occ. eigenvalues --  -19.64693 -10.57134 -10.53032 -10.52232 -10.51224
  Beta  occ. eigenvalues --   -1.16777  -0.88779  -0.79785  -0.70582  -0.64954
  Beta  occ. eigenvalues --   -0.59782  -0.52166  -0.50996  -0.48090  -0.45146
  Beta  occ. eigenvalues --   -0.43379  -0.42445  -0.38923  -0.38566  -0.38107
  Beta virt. eigenvalues --   -0.00125   0.01560   0.02852   0.03553   0.03874
  Beta virt. eigenvalues --    0.06199   0.06347   0.07636   0.08125   0.08475
  Beta virt. eigenvalues --    0.10736   0.11127   0.12365   0.12479   0.12824

 Mulliken charges and spin densities:
               1          2
     1  O   -0.281044   0.070484
     2  C   -0.224546  -0.006840
     3  C   -0.300932  -0.027830
     4  C   -0.458588   0.023708
     5  C   -0.225543   0.962549
     6  H    0.144693  -0.001942
     7  H    0.181108  -0.001362
     8  H    0.161368   0.040303
     9  H    0.164700   0.000492
    10  H    0.132763  -0.003566
    11  H    0.133914  -0.000448
    12  H    0.145448  -0.011975
    13  H    0.161769  -0.038915
    14  H    0.264889  -0.004659
 Sum of Mulliken charges =  -0.00000   1.00000

 Dipole moment (field-independent basis, Debye):
    X=              0.9948    Y=              0.0197    Z=              0.8307  Tot=              1.2961
 Quadrupole moment (field-independent basis, Debye-Ang):
   XX=            -28.5975   YY=            -31.9968   ZZ=            -34.0949
   XY=             -2.5923   XZ=              2.4121   YZ=              0.0194

 Normal termination of Gaussian 16 at Fri Mar 29 04:35:18 2019.
