 Gaussian 16, Revision A.03,
 Gaussian 16:  EM64L-G16RevA.03 25-Dec-2016

 ----------------------------------------------
 #p m062x/6-311+g(2df,2p) Opt=(CalcFC,ModRedun)
 ----------------------------------------------

 ----------------------------------------
 Gaussian Input Prepared from Scan Object
 ----------------------------------------
 Symbolic Z-matrix:
 Charge =  0 Multiplicity = 2

 SCF Done:  E(UM062X) =  -232.974897498     A.U. after   14 cycles

  Exact polarizability:   0.000   0.000   0.000   0.000   0.000   0.000
 Approx polarizability:  61.175  -2.248  60.538   0.688   0.341  61.285

 Optimization completed.
    -- Stationary point found.
 SCF Done:  E(UM062X) =  -232.961592796     A.U. after   12 cycles
 SCF Done:  E(UM062X) =  -232.970454489     A.U. after   13 cycles
 SCF Done:  E(UM062X) =  -232.972844770     A.U. after   12 cycles
 SCF Done:  E(UM062X) =  -232.972885131     A.U. after   12 cycles
 SCF Done:  E(UM062X) =  -232.972885460     A.U. after    8 cycles
 Optimization completed.
 SCF Done:  E(UM062X) =  -232.956173440     A.U. after   12 cycles
 SCF Done:  E(UM062X) =  -232.966090514     A.U. after   12 cycles
 SCF Done:  E(UM062X) =  -232.970323768     A.U. after   12 cycles
 SCF Done:  E(UM062X) =  -232.970400397     A.U. after   12 cycles
 SCF Done:  E(UM062X) =  -232.968598681     A.U. after   12 cycles
 SCF Done:  E(UM062X) =  -232.972770460     A.U. after   12 cycles
 SCF Done:  E(UM062X) =  -232.972810069     A.U. after   11 cycles
 SCF Done:  E(UM062X) =  -232.972811167     A.U. after   10 cycles
    -- Stationary point found.
 SCF Done:  E(UM062X) =  -232.963448998     A.U. after   12 cycles
 SCF Done:  E(UM062X) =  -232.972818921     A.U. after   11 cycles
 SCF Done:  E(UM062X) =  -232.974856009     A.U. after   12 cycles
 SCF Done:  E(UM062X) =  -232.974895170     A.U. after   11 cycles
 SCF Done:  E(UM062X) =  -232.974897422     A.U. after   10 cycles
 SCF Done:  E(UM062X) =  -232.974897494     A.U. after    9 cycles
 Optimization completed.
    -- Stationary point found.

                         Standard orientation:
 ---------------------------------------------------------------------
 Center     Atomic      Atomic             Coordinates (Angstroms)
 Number     Number       Type             X           Y           Z
 ---------------------------------------------------------------------
      1          8           0        1.691584   -0.654966   -0.409007
      2          6           0       -1.076254    0.279534   -0.595917
      3          6           0        0.072258    1.043328    0.074307
      4          6           0       -1.761533   -0.698324    0.350993
      5          6           0        1.158079    0.153422    0.556308
      6          1           0       -1.800868    1.002021   -0.975057
      7          1           0       -0.683983   -0.257216   -1.460740
      8          1           0        0.474357    1.774998   -0.640250
      9          1           0       -0.307173    1.611307    0.926388
     10          1           0       -2.147699   -0.181164    1.231253
     11          1           0       -2.595870   -1.202191   -0.135659
     12          1           0       -1.060233   -1.458495    0.694982
     13          1           0        1.815001    0.448066    1.365536
     14          1           0        2.418495   -1.165360   -0.048537
 ---------------------------------------------------------------------

 The electronic state is 2-A.
 Alpha  occ. eigenvalues --  -19.65044 -10.57882 -10.52981 -10.52269 -10.51230
 Alpha  occ. eigenvalues --   -1.18062  -0.89323  -0.80735  -0.71842  -0.65405
 Alpha  occ. eigenvalues --   -0.61209  -0.53230  -0.51968  -0.49067  -0.46891
 Alpha  occ. eigenvalues --   -0.44538  -0.43278  -0.39664  -0.38711  -0.38436
 Alpha  occ. eigenvalues --   -0.22281
 Alpha virt. eigenvalues --    0.01006   0.02786   0.03542   0.04267   0.06218
 Alpha virt. eigenvalues --    0.06341   0.07783   0.08180   0.08549   0.10956
 Alpha virt. eigenvalues --    0.11590   0.12295   0.12555   0.13009   0.15802

  Beta  occ. eigenvalues --  -19.64693 -10.57133 -10.53031 -10.52233 -10.51224
  Beta  occ. eigenvalues --   -1.16777  -0.88780  -0.79785  -0.70582  -0.64953
  Beta  occ. eigenvalues --   -0.59783  -0.52166  -0.50996  -0.48092  -0.45145
  Beta  occ. eigenvalues --   -0.43380  -0.42446  -0.38923  -0.38566  -0.38107
  Beta virt. eigenvalues --   -0.00125   0.01560   0.02853   0.03554   0.03874
  Beta virt. eigenvalues --    0.06199   0.06347   0.07636   0.08125   0.08476
  Beta virt. eigenvalues --    0.10736   0.11127   0.12365   0.12480   0.12825

 Mulliken charges and spin densities:
               1          2
     1  O   -0.281021   0.070490
     2  C   -0.224479  -0.006819
     3  C   -0.301118  -0.027770
     4  C   -0.458592   0.023696
     5  C   -0.225491   0.962527
     6  H    0.144692  -0.001943
     7  H    0.181095  -0.001368
     8  H    0.161418   0.040286
     9  H    0.164712   0.000476
    10  H    0.132772  -0.003572
    11  H    0.133922  -0.000447
    12  H    0.145446  -0.011975
    13  H    0.161766  -0.038921
    14  H    0.264879  -0.004658
 Sum of Mulliken charges =  -0.00000   1.00000

 Dipole moment (field-independent basis, Debye):
    X=              0.9944    Y=              0.0193    Z=              0.8312  Tot=              1.2962
 Quadrupole moment (field-independent basis, Debye-Ang):
   XX=            -28.5981   YY=            -31.9977   ZZ=            -34.0937
   XY=             -2.5935   XZ=              2.4123   YZ=              0.0195

 Normal termination of Gaussian 16 at Fri Mar 29 01:14:24 2019.
