 Gaussian 16, Revision A.03,
 Gaussian 16:  EM64L-G16RevA.03 25-Dec-2016

 ----------------------------------------------------------------------
 #p m062x/6-311+g(2df,2p) opt=(calcfc,verytight,gdiis,maxcycles=900) fr
 eq iop(7/33=1,2/16=3)
 ----------------------------------------------------------------------

 ------------------------------
 Gaussian input prepared by ASE
 ------------------------------
 Symbolic Z-matrix:
 Charge =  0 Multiplicity = 2

 SCF Done:  E(UM062X) =  -232.974895722     A.U. after   14 cycles
 SCF Done:  E(UM062X) =  -232.974897495     A.U. after    9 cycles
 SCF Done:  E(UM062X) =  -232.974897498     A.U. after    7 cycles
 SCF Done:  E(UM062X) =  -232.974897498     A.U. after    3 cycles
 Optimization completed.
    -- Stationary point found.
 Normal termination of Gaussian 16 at Thu Mar 14 15:50:41 2019.

 ----------------------------------------------------------------------
 #P Geom=AllCheck Guess=TCheck SCRF=Check Test GenChk UM062X/6-311+G(2d
 f,2p) Freq
 ----------------------------------------------------------------------

 Structure from the checkpoint file:  "/scratch/underkoffler.c/gaussian_scratch/Gau-38536.chk"
 ------------------------------
 Gaussian input prepared by ASE
 ------------------------------
 Charge =  0 Multiplicity = 2

                         Standard orientation:
 ---------------------------------------------------------------------
 Center     Atomic      Atomic             Coordinates (Angstroms)
 Number     Number       Type             X           Y           Z
 ---------------------------------------------------------------------
      1          8           0        1.691898   -0.654767   -0.408984
      2          6           0       -1.076217    0.279377   -0.596024
      3          6           0        0.072217    1.043190    0.074301
      4          6           0       -1.761802   -0.698152    0.350983
      5          6           0        1.158033    0.153320    0.556382
      6          1           0       -1.800691    1.001782   -0.975572
      7          1           0       -0.683783   -0.257675   -1.460593
      8          1           0        0.474363    1.774846   -0.640240
      9          1           0       -0.307282    1.611181    0.926344
     10          1           0       -2.148007   -0.180693    1.231037
     11          1           0       -2.596062   -1.202148   -0.135673
     12          1           0       -1.060555   -1.458229    0.695293
     13          1           0        1.814696    0.447855    1.365859
     14          1           0        2.418750   -1.165188   -0.048433
 ---------------------------------------------------------------------

 SCF Done:  E(UM062X) =  -232.974897498     A.U. after    1 cycles

 The electronic state is 2-A.
 Alpha  occ. eigenvalues --  -19.65044 -10.57882 -10.52981 -10.52269 -10.51230
 Alpha  occ. eigenvalues --   -1.18062  -0.89323  -0.80735  -0.71841  -0.65405
 Alpha  occ. eigenvalues --   -0.61210  -0.53231  -0.51968  -0.49066  -0.46891
 Alpha  occ. eigenvalues --   -0.44539  -0.43277  -0.39664  -0.38711  -0.38437
 Alpha  occ. eigenvalues --   -0.22281
 Alpha virt. eigenvalues --    0.01006   0.02786   0.03542   0.04266   0.06218
 Alpha virt. eigenvalues --    0.06341   0.07783   0.08180   0.08549   0.10956
 Alpha virt. eigenvalues --    0.11590   0.12295   0.12553   0.13008   0.15802

  Beta  occ. eigenvalues --  -19.64693 -10.57134 -10.53031 -10.52232 -10.51224
  Beta  occ. eigenvalues --   -1.16777  -0.88780  -0.79786  -0.70582  -0.64954
  Beta  occ. eigenvalues --   -0.59783  -0.52167  -0.50996  -0.48092  -0.45145
  Beta  occ. eigenvalues --   -0.43381  -0.42445  -0.38923  -0.38566  -0.38108
  Beta virt. eigenvalues --   -0.00125   0.01560   0.02853   0.03554   0.03874
  Beta virt. eigenvalues --    0.06199   0.06347   0.07636   0.08125   0.08475
  Beta virt. eigenvalues --    0.10736   0.11127   0.12364   0.12479   0.12824

 Mulliken charges and spin densities:
               1          2
     1  O   -0.281012   0.070493
     2  C   -0.224387  -0.006835
     3  C   -0.301136  -0.027743
     4  C   -0.458613   0.023716
     5  C   -0.225517   0.962523
     6  H    0.144675  -0.001943
     7  H    0.181088  -0.001372
     8  H    0.161430   0.040280
     9  H    0.164706   0.000472
    10  H    0.132765  -0.003571
    11  H    0.133919  -0.000450
    12  H    0.145436  -0.011987
    13  H    0.161767  -0.038923
    14  H    0.264877  -0.004660
 Sum of Mulliken charges =  -0.00000   1.00000

 Dipole moment (field-independent basis, Debye):
    X=              0.9942    Y=              0.0192    Z=              0.8315  Tot=              1.2962
 Quadrupole moment (field-independent basis, Debye-Ang):
   XX=            -28.5989   YY=            -31.9981   ZZ=            -34.0932
   XY=             -2.5937   XZ=              2.4135   YZ=              0.0197

  Exact polarizability:  58.901  -0.620  52.784   1.106  -0.483  51.608
 Approx polarizability:  61.175  -2.248  60.538   0.688   0.341  61.285

                      1                      2                      3
                      A                      A                      A
 Frequencies --     58.8919               151.5831               242.9824
 Red. masses --      3.2947                 1.5445                 1.5216
 Frc consts  --      0.0067                 0.0209                 0.0529
 IR Inten    --      1.1200                 4.6575                13.7529

                      4                      5                      6
                      A                      A                      A
 Frequencies --    267.2544               352.5709               392.3700
 Red. masses --      1.8143                 1.2264                 1.7566
 Frc consts  --      0.0764                 0.0898                 0.1593
 IR Inten    --      2.1360                98.4899                20.5329

                      7                      8                      9
                      A                      A                      A
 Frequencies --    475.7705               632.3655               772.7898
 Red. masses --      1.6237                 1.9627                 1.3058
 Frc consts  --      0.2165                 0.4624                 0.4594
 IR Inten    --      6.8463                11.0273                 4.6562

                     10                     11                     12
                      A                      A                      A
 Frequencies --    861.8236               880.2967               969.1749
 Red. masses --      2.7507                 1.4037                 1.7786
 Frc consts  --      1.2037                 0.6409                 0.9843
 IR Inten    --      0.4554                 6.1099                 3.9357

                     13                     14                     15
                      A                      A                      A
 Frequencies --   1056.2773              1089.6128              1105.3511
 Red. masses --      1.6261                 1.7235                 1.6378
 Frc consts  --      1.0690                 1.2056                 1.1790
 IR Inten    --     14.7124                 3.0263                32.0925

                     16                     17                     18
                      A                      A                      A
 Frequencies --   1212.0062              1230.2197              1285.1638
 Red. masses --      1.4213                 1.4519                 1.6261
 Frc consts  --      1.2301                 1.2946                 1.5824
 IR Inten    --     11.9418                39.5973                46.7159

                     19                     20                     21
                      A                      A                      A
 Frequencies --   1301.9974              1365.2162              1380.6664
 Red. masses --      1.3468                 1.3377                 1.4807
 Frc consts  --      1.3452                 1.4689                 1.6630
 IR Inten    --     46.1782                 4.9970                 6.5893

                     22                     23                     24
                      A                      A                      A
 Frequencies --   1413.9101              1451.9624              1471.8745
 Red. masses --      1.2716                 1.6071                 1.1858
 Frc consts  --      1.4978                 1.9962                 1.5135
 IR Inten    --      6.8481                12.3382                 5.3145

                     25                     26                     27
                      A                      A                      A
 Frequencies --   1496.2860              1502.6676              1508.9617
 Red. masses --      1.0729                 1.0445                 1.0749
 Frc consts  --      1.4153                 1.3896                 1.4421
 IR Inten    --      1.0895                 9.6394                 7.7093

                     28                     29                     30
                      A                      A                      A
 Frequencies --   2985.5769              3058.8669              3069.5724
 Red. masses --      1.0706                 1.0371                 1.0609
 Frc consts  --      5.6227                 5.7175                 5.8898
 IR Inten    --     35.4994                18.6235                27.9285

                     31                     32                     33
                      A                      A                      A
 Frequencies --   3084.1349              3105.2913              3128.2639
 Red. masses --      1.0902                 1.0997                 1.1016
 Frc consts  --      6.1098                 6.2477                 6.3516
 IR Inten    --     12.7519                 5.2031                40.1063

                     34                     35                     36
                      A                      A                      A
 Frequencies --   3136.5315              3173.6493              3918.2594
 Red. masses --      1.1023                 1.0896                 1.0665
 Frc consts  --      6.3893                 6.4661                 9.6473
 IR Inten    --     29.9926                28.3006                85.6501

 - Thermochemistry -
 -------------------
 Temperature   298.150 Kelvin.  Pressure   1.00000 Atm.
 Atom     1 has atomic number  8 and mass  15.99491

 Molecular mass:    73.06534 amu.
 Principal axes and moments of inertia in atomic units:
                           1         2         3
     Eigenvalues --   212.45174 568.63426 635.02716
           X            0.99978   0.01771   0.01163
           Y           -0.01732   0.99930  -0.03310
           Z           -0.01221   0.03289   0.99938
 This molecule is an asymmetric top.
 Rotational symmetry number  1.
 Rotational temperatures (Kelvin)      0.40769     0.15232     0.13639
 Rotational constants (GHZ):           8.49483     3.17382     2.84199
 Zero-point vibrational energy     326521.9 (Joules/Mol)
                                   78.04060 (Kcal/Mol)
 Warning -- explicit consideration of   7 degrees of freedom as
           vibrations may cause significant error
 Vibrational temperatures:     84.73   218.09   349.60   384.52   507.27
          (Kelvin)            564.53   684.53   909.83  1111.87  1239.97
                             1266.55  1394.43  1519.75  1567.71  1590.35
                             1743.81  1770.01  1849.06  1873.28  1964.24
                             1986.47  2034.30  2089.05  2117.70  2152.82
                             2162.00  2171.06  4295.58  4401.03  4416.43
                             4437.38  4467.82  4500.87  4512.77  4566.17
                             5637.50

 Zero-point correction=                           0.124366 (Hartree/Particle)
 Thermal correction to Energy=                    0.131107
 Thermal correction to Enthalpy=                  0.132052
 Thermal correction to Gibbs Free Energy=         0.093608
 Sum of electronic and zero-point Energies=           -232.850532
 Sum of electronic and thermal Energies=              -232.843790
 Sum of electronic and thermal Enthalpies=            -232.842846
 Sum of electronic and thermal Free Energies=         -232.881289

                     E (Thermal)             CV                S
                      KCal/Mol        Cal/Mol-Kelvin    Cal/Mol-Kelvin
 Total                   82.271             23.156             80.910
 Electronic               0.000              0.000              1.377
 Translational            0.889              2.981             38.783
 Rotational               0.889              2.981             25.842
 Vibrational             80.494             17.195             14.908
 Vibration     1          0.596              1.974              4.494
 Vibration     2          0.619              1.901              2.652
 Vibration     3          0.659              1.774              1.781
 Vibration     4          0.672              1.733              1.614
 Vibration     5          0.729              1.570              1.155
 Vibration     6          0.760              1.486              0.991
 Vibration     7          0.832              1.304              0.722

 Optimization completed.
    -- Stationary point found.
 Normal termination of Gaussian 16 at Thu Mar 14 15:55:55 2019.
