 Gaussian 16, Revision A.03,
 Gaussian 16:  EM64L-G16RevA.03 25-Dec-2016

 ----------------------------------------------------------------------
 #p m062x/6-311+g(2df,2p) opt=(calcfc,verytight,gdiis,maxcycles=900) fr
 eq iop(7/33=1,2/16=3)
 ----------------------------------------------------------------------

 ------------------------------
 Gaussian input prepared by ASE
 ------------------------------
 Symbolic Z-matrix:
 Charge =  0 Multiplicity = 2

 SCF Done:  E(UM062X) =  -232.949286876     A.U. after   14 cycles
 SCF Done:  E(UM062X) =  -232.958539391     A.U. after   13 cycles
 SCF Done:  E(UM062X) =  -232.959540008     A.U. after   12 cycles
 SCF Done:  E(UM062X) =  -232.960703075     A.U. after   13 cycles
 SCF Done:  E(UM062X) =  -232.950228755     A.U. after   15 cycles
 SCF Done:  E(UM062X) =  -232.959114778     A.U. after   13 cycles
 SCF Done:  E(UM062X) =  -232.959317679     A.U. after   15 cycles
 SCF Done:  E(UM062X) =  -232.963216630     A.U. after   15 cycles
 SCF Done:  E(UM062X) =  -232.966587367     A.U. after   13 cycles
 SCF Done:  E(UM062X) =  -232.967985711     A.U. after   12 cycles
 SCF Done:  E(UM062X) =  -232.973418641     A.U. after    9 cycles
 SCF Done:  E(UM062X) =  -232.973418629     A.U. after   10 cycles
 SCF Done:  E(UM062X) =  -232.973418740     A.U. after   10 cycles
 SCF Done:  E(UM062X) =  -232.973418746     A.U. after    9 cycles
 SCF Done:  E(UM062X) =  -232.973418747     A.U. after    4 cycles
 SCF Done:  E(UM062X) =  -232.973418747     A.U. after    3 cycles
 SCF Done:  E(UM062X) =  -232.973418747     A.U. after    3 cycles
 SCF Done:  E(UM062X) =  -232.973418747     A.U. after    3 cycles
 SCF Done:  E(UM062X) =  -232.973418747     A.U. after    2 cycles
 Optimization completed.
    -- Stationary point found.
 Normal termination of Gaussian 16 at Tue Apr  9 00:58:34 2019.

 ----------------------------------------------------------------------
 #P Geom=AllCheck Guess=TCheck SCRF=Check Test GenChk UM062X/6-311+G(2d
 f,2p) Freq
 ----------------------------------------------------------------------

 Structure from the checkpoint file:  "/scratch/underkoffler.c/gaussian_scratch/Gau-42384.chk"
 ------------------------------
 Gaussian input prepared by ASE
 ------------------------------
 Charge =  0 Multiplicity = 2

                         Standard orientation:
 ---------------------------------------------------------------------
 Center     Atomic      Atomic             Coordinates (Angstroms)
 Number     Number       Type             X           Y           Z
 ---------------------------------------------------------------------
      1          8           0        1.624446   -0.795938   -0.176736
      2          6           0       -1.315355    0.523862    0.181679
      3          6           0        0.046129    1.017743   -0.335502
      4          6           0       -1.511946   -0.976434    0.003159
      5          6           0        1.216110    0.401797    0.340166
      6          1           0       -1.404150    0.784121    1.238574
      7          1           0       -2.102913    1.066596   -0.345967
      8          1           0        0.102689    2.100253   -0.212240
      9          1           0        0.108050    0.811393   -1.411016
     10          1           0       -1.405382   -1.259225   -1.045297
     11          1           0       -0.767945   -1.535812    0.568704
     12          1           0       -2.501130   -1.285702    0.339353
     13          1           0        1.961425    0.991033    0.857907
     14          1           0        2.404163   -1.106960    0.286859
 ---------------------------------------------------------------------

 SCF Done:  E(UM062X) =  -232.973418747     A.U. after    1 cycles

 The electronic state is 2-A.
 Alpha  occ. eigenvalues --  -19.65132 -10.57907 -10.53020 -10.52465 -10.50987
 Alpha  occ. eigenvalues --   -1.18139  -0.89267  -0.80764  -0.71850  -0.64788
 Alpha  occ. eigenvalues --   -0.62101  -0.53791  -0.50899  -0.48750  -0.46987
 Alpha  occ. eigenvalues --   -0.45436  -0.42840  -0.39491  -0.39148  -0.38159
 Alpha  occ. eigenvalues --   -0.22031
 Alpha virt. eigenvalues --    0.01132   0.02824   0.03487   0.04646   0.06038
 Alpha virt. eigenvalues --    0.06812   0.07824   0.08339   0.08463   0.10796
 Alpha virt. eigenvalues --    0.11538   0.12209   0.12278   0.12901   0.15973

  Beta  occ. eigenvalues --  -19.64763 -10.57181 -10.53073 -10.52386 -10.50990
  Beta  occ. eigenvalues --   -1.16818  -0.88668  -0.79801  -0.70692  -0.64165
  Beta  occ. eigenvalues --   -0.60731  -0.52893  -0.49995  -0.47528  -0.45987
  Beta  occ. eigenvalues --   -0.43625  -0.41830  -0.39309  -0.38612  -0.37732
  Beta virt. eigenvalues --   -0.00635   0.01359   0.02951   0.03427   0.04420
  Beta virt. eigenvalues --    0.05704   0.06582   0.07593   0.08048   0.08595
  Beta virt. eigenvalues --    0.10512   0.10946   0.11714   0.12131   0.12691

 Mulliken charges and spin densities:
               1          2
     1  O   -0.265263   0.073069
     2  C   -0.180922   0.023621
     3  C   -0.344602   0.003508
     4  C   -0.490818  -0.005462
     5  C   -0.228172   0.938436
     6  H    0.163556  -0.011990
     7  H    0.142252   0.002798
     8  H    0.147736   0.003965
     9  H    0.189552   0.020207
    10  H    0.147084  -0.000412
    11  H    0.156595  -0.000557
    12  H    0.134643  -0.000404
    13  H    0.164688  -0.042173
    14  H    0.263672  -0.004606
 Sum of Mulliken charges =  -0.00000   1.00000

 Dipole moment (field-independent basis, Debye):
    X=              1.1275    Y=              0.4193    Z=              0.6778  Tot=              1.3807
 Quadrupole moment (field-independent basis, Debye-Ang):
   XX=            -28.0680   YY=            -32.6345   ZZ=            -33.9029
   XY=             -1.4124   XZ=              2.6102   YZ=             -0.8834

  Exact polarizability:  59.994  -0.629  55.125   1.154   0.395  49.773
 Approx polarizability:  62.615  -1.968  61.530   1.460   0.746  60.478

                      1                      2                      3
                      A                      A                      A
 Frequencies --     84.1022               114.4850               247.9624
 Red. masses --      2.8207                 2.0212                 1.2914
 Frc consts  --      0.0118                 0.0156                 0.0468
 IR Inten    --      7.0069                 0.6731                 6.6586

                      4                      5                      6
                      A                      A                      A
 Frequencies --    293.4894               328.9488               398.4993
 Red. masses --      1.3501                 1.5133                 2.3828
 Frc consts  --      0.0685                 0.0965                 0.2229
 IR Inten    --     36.1991                62.5605                28.6922

                      7                      8                      9
                      A                      A                      A
 Frequencies --    419.9425               548.9737               787.2247
 Red. masses --      1.4278                 1.8658                 1.2459
 Frc consts  --      0.1484                 0.3313                 0.4549
 IR Inten    --      5.7295                10.0457                 5.0695

                     10                     11                     12
                      A                      A                      A
 Frequencies --    838.3067               892.9096               971.4553
 Red. masses --      2.6358                 1.4536                 2.0788
 Frc consts  --      1.0914                 0.6828                 1.1559
 IR Inten    --      3.0889                 6.8425                 1.2314

                     13                     14                     15
                      A                      A                      A
 Frequencies --   1066.1473              1094.1399              1103.4600
 Red. masses --      1.5123                 2.0002                 1.5900
 Frc consts  --      1.0128                 1.4108                 1.1407
 IR Inten    --     10.7780                14.0718                 6.6535

                     16                     17                     18
                      A                      A                      A
 Frequencies --   1223.3963              1226.2288              1284.3048
 Red. masses --      1.2696                 1.8291                 1.3306
 Frc consts  --      1.1196                 1.6204                 1.2932
 IR Inten    --     44.2085                40.0223                16.5245

                     19                     20                     21
                      A                      A                      A
 Frequencies --   1321.7796              1353.0694              1374.4090
 Red. masses --      1.5319                 1.3052                 1.3468
 Frc consts  --      1.5768                 1.4079                 1.4989
 IR Inten    --     65.6939                 0.7043                 5.0757

                     22                     23                     24
                      A                      A                      A
 Frequencies --   1419.1422              1448.9376              1478.3512
 Red. masses --      1.2777                 1.3419                 1.3628
 Frc consts  --      1.5161                 1.6599                 1.7549
 IR Inten    --      5.0423                 7.7648                 8.7977

                     25                     26                     27
                      A                      A                      A
 Frequencies --   1492.8492              1503.5711              1510.3017
 Red. masses --      1.0782                 1.0446                 1.0862
 Frc consts  --      1.4157                 1.3914                 1.4597
 IR Inten    --      1.8013                 9.2742                10.5343

                     28                     29                     30
                      A                      A                      A
 Frequencies --   3017.5984              3052.7785              3062.2270
 Red. masses --      1.0676                 1.0602                 1.0369
 Frc consts  --      5.7278                 5.8212                 5.7289
 IR Inten    --     21.2091                29.2281                22.6659

                     31                     32                     33
                      A                      A                      A
 Frequencies --   3089.6072              3099.8411              3129.0143
 Red. masses --      1.1016                 1.0944                 1.1015
 Frc consts  --      6.1954                 6.1961                 6.3542
 IR Inten    --     20.0933                21.0763                32.5756

                     34                     35                     36
                      A                      A                      A
 Frequencies --   3142.2195              3184.2107              3911.5201
 Red. masses --      1.1020                 1.0905                 1.0664
 Frc consts  --      6.4105                 6.5147                 9.6133
 IR Inten    --     23.7461                23.6060                81.7847

 - Thermochemistry -
 -------------------
 Temperature   298.150 Kelvin.  Pressure   1.00000 Atm.
 Atom     1 has atomic number  8 and mass  15.99491

 Molecular mass:    73.06534 amu.
 Principal axes and moments of inertia in atomic units:
                           1         2         3
     Eigenvalues --   227.14443 510.10896 667.96012
           X            0.99950   0.02988   0.01072
           Y           -0.02978   0.99951  -0.00943
           Z           -0.01099   0.00911   0.99990
 This molecule is an asymmetric top.
 Rotational symmetry number  1.
 Rotational temperatures (Kelvin)      0.38132     0.16979     0.12967
 Rotational constants (GHZ):           7.94535     3.53795     2.70187
 Zero-point vibrational energy     326074.5 (Joules/Mol)
                                   77.93368 (Kcal/Mol)
 Warning -- explicit consideration of   8 degrees of freedom as
           vibrations may cause significant error
 Vibrational temperatures:    121.00   164.72   356.76   422.27   473.28
          (Kelvin)            573.35   604.20   789.85  1132.64  1206.14
                             1284.70  1397.71  1533.95  1574.22  1587.63
                             1760.19  1764.27  1847.83  1901.75  1946.77
                             1977.47  2041.83  2084.70  2127.02  2147.88
                             2163.30  2172.99  4341.65  4392.27  4405.86
                             4445.26  4459.98  4501.95  4520.95  4581.37
                             5627.80

 Zero-point correction=                           0.124195 (Hartree/Particle)
 Thermal correction to Energy=                    0.131023
 Thermal correction to Enthalpy=                  0.131967
 Thermal correction to Gibbs Free Energy=         0.093502
 Sum of electronic and zero-point Energies=           -232.849224
 Sum of electronic and thermal Energies=              -232.842396
 Sum of electronic and thermal Enthalpies=            -232.841451
 Sum of electronic and thermal Free Energies=         -232.879917

                     E (Thermal)             CV                S
                      KCal/Mol        Cal/Mol-Kelvin    Cal/Mol-Kelvin
 Total                   82.218             23.429             80.957
 Electronic               0.000              0.000              1.377
 Translational            0.889              2.981             38.783
 Rotational               0.889              2.981             25.851
 Vibrational             80.441             17.468             14.946
 Vibration     1          0.601              1.960              3.793
 Vibration     2          0.607              1.937              3.191
 Vibration     3          0.662              1.766              1.745
 Vibration     4          0.688              1.686              1.454
 Vibration     5          0.712              1.618              1.265
 Vibration     6          0.765              1.473              0.968
 Vibration     7          0.783              1.427              0.892
 Vibration     8          0.904              1.142              0.546

                           ! Non-Optimized Parameters !
 Normal termination of Gaussian 16 at Tue Apr  9 01:04:15 2019.
