 Gaussian 16, Revision A.03,
 Gaussian 16:  EM64L-G16RevA.03 25-Dec-2016

 ----------------------------------------------------------------------
 #p m062x/6-311+g(2df,2p) opt=(calcfc,verytight,gdiis,maxcycles=900) fr
 eq iop(7/33=1,2/16=3)
 ----------------------------------------------------------------------

 ------------------------------
 Gaussian input prepared by ASE
 ------------------------------
 Symbolic Z-matrix:
 Charge =  0 Multiplicity = 2

 SCF Done:  E(UM062X) =  -232.974358001     A.U. after   14 cycles
 SCF Done:  E(UM062X) =  -232.974372206     A.U. after   11 cycles
 SCF Done:  E(UM062X) =  -232.974372272     A.U. after    9 cycles
 SCF Done:  E(UM062X) =  -232.974372268     A.U. after    8 cycles
 SCF Done:  E(UM062X) =  -232.974372267     A.U. after    5 cycles
 SCF Done:  E(UM062X) =  -232.974372267     A.U. after    3 cycles
 SCF Done:  E(UM062X) =  -232.974372267     A.U. after    3 cycles
 SCF Done:  E(UM062X) =  -232.974372267     A.U. after    2 cycles
 Optimization completed.
    -- Stationary point found.
 Normal termination of Gaussian 16 at Wed Mar 13 04:15:57 2019.

 ----------------------------------------------------------------------
 #P Geom=AllCheck Guess=TCheck SCRF=Check Test GenChk UM062X/6-311+G(2d
 f,2p) Freq
 ----------------------------------------------------------------------

 Structure from the checkpoint file:  "/scratch/underkoffler.c/gaussian_scratch/Gau-39989.chk"
 ------------------------------
 Gaussian input prepared by ASE
 ------------------------------
 Charge =  0 Multiplicity = 2

                         Standard orientation:
 ---------------------------------------------------------------------
 Center     Atomic      Atomic             Coordinates (Angstroms)
 Number     Number       Type             X           Y           Z
 ---------------------------------------------------------------------
      1          8           0       -1.790534   -0.721859    0.286782
      2          6           0        1.070663    0.282375    0.594865
      3          6           0       -0.103411    1.039542   -0.041968
      4          6           0        1.758927   -0.667567   -0.378221
      5          6           0       -1.176689    0.149963   -0.564166
      6          1           0        1.786199    1.011412    0.977685
      7          1           0        0.728960   -0.272955    1.474947
      8          1           0       -0.513689    1.742666    0.697823
      9          1           0        0.268843    1.643122   -0.871732
     10          1           0        2.121993   -0.122960   -1.250944
     11          1           0        2.608936   -1.165140    0.086770
     12          1           0        1.067304   -1.431040   -0.734429
     13          1           0       -1.829272    0.460070   -1.366088
     14          1           0       -1.211940   -0.916183    1.028654
 ---------------------------------------------------------------------

 SCF Done:  E(UM062X) =  -232.974372267     A.U. after    1 cycles

 The electronic state is 2-A.
 Alpha  occ. eigenvalues --  -19.64853 -10.57725 -10.54122 -10.53992 -10.52393
 Alpha  occ. eigenvalues --   -1.17971  -0.90228  -0.81362  -0.73579  -0.67050
 Alpha  occ. eigenvalues --   -0.58077  -0.54884  -0.53389  -0.50148  -0.47578
 Alpha  occ. eigenvalues --   -0.46079  -0.42736  -0.40955  -0.40210  -0.39355
 Alpha  occ. eigenvalues --   -0.22137
 Alpha virt. eigenvalues --    0.01232   0.02848   0.03442   0.03637   0.05754
 Alpha virt. eigenvalues --    0.06557   0.07329   0.07627   0.07964   0.11119
 Alpha virt. eigenvalues --    0.11283   0.11688   0.11834   0.12336   0.14583

  Beta  occ. eigenvalues --  -19.64498 -10.56979 -10.54087 -10.54034 -10.52387
  Beta  occ. eigenvalues --   -1.16674  -0.89797  -0.80384  -0.72201  -0.66576
  Beta  occ. eigenvalues --   -0.57216  -0.53552  -0.52158  -0.49811  -0.46081
  Beta  occ. eigenvalues --   -0.44158  -0.42089  -0.40153  -0.40100  -0.38794
  Beta virt. eigenvalues --   -0.00067   0.01863   0.02775   0.03147   0.03584
  Beta virt. eigenvalues --    0.05955   0.06509   0.07122   0.07357   0.08138
  Beta virt. eigenvalues --    0.10503   0.11450   0.11599   0.11773   0.12321

 Mulliken charges and spin densities:
               1          2
     1  O   -0.277957   0.073625
     2  C   -0.222996  -0.036255
     3  C   -0.347768   0.023665
     4  C   -0.448700   0.027480
     5  C   -0.196861   0.936291
     6  H    0.157189  -0.002530
     7  H    0.146200  -0.001637
     8  H    0.166527   0.039460
     9  H    0.172867  -0.001236
    10  H    0.141039  -0.004216
    11  H    0.137358  -0.000398
    12  H    0.149478  -0.011513
    13  H    0.170481  -0.039869
    14  H    0.253141  -0.002868
 Sum of Mulliken charges =  -0.00000   1.00000

 Dipole moment (field-independent basis, Debye):
    X=              1.4090    Y=              0.7315    Z=              0.7706  Tot=              1.7647
 Quadrupole moment (field-independent basis, Debye-Ang):
   XX=            -36.6899   YY=            -33.1203   ZZ=            -31.4638
   XY=             -1.3824   XZ=              0.3056   YZ=             -1.9362

  Exact polarizability:  57.859  -0.177  52.119   1.016  -0.059  52.524
 Approx polarizability:  61.225   1.595  60.338   0.895  -1.203  62.532

                      1                      2                      3
                      A                      A                      A
 Frequencies --     50.8483               160.9924               230.8745
 Red. masses --      2.7719                 1.3940                 1.3911
 Frc consts  --      0.0042                 0.0213                 0.0437
 IR Inten    --      0.4768                 4.7091                 8.9015

                      4                      5                      6
                      A                      A                      A
 Frequencies --    276.6698               339.4323               395.6204
 Red. masses --      1.7679                 1.6757                 1.9254
 Frc consts  --      0.0797                 0.1138                 0.1776
 IR Inten    --      1.5413                42.5831                 1.9586

                      7                      8                      9
                      A                      A                      A
 Frequencies --    493.5409               625.4198               773.0519
 Red. masses --      1.4897                 1.7293                 1.3085
 Frc consts  --      0.2138                 0.3985                 0.4607
 IR Inten    --     37.3711                27.1148                 1.2056

                     10                     11                     12
                      A                      A                      A
 Frequencies --    855.6351               876.1225               964.6890
 Red. masses --      2.9392                 1.3836                 1.8353
 Frc consts  --      1.2678                 0.6257                 1.0063
 IR Inten    --      3.1613                 2.4614                17.4008

                     13                     14                     15
                      A                      A                      A
 Frequencies --   1056.9106              1089.6896              1115.2112
 Red. masses --      1.6040                 1.8177                 1.6471
 Frc consts  --      1.0556                 1.2717                 1.2069
 IR Inten    --      5.7088                 1.4649                19.0164

                     16                     17                     18
                      A                      A                      A
 Frequencies --   1196.4014              1238.1271              1284.4562
 Red. masses --      1.4494                 1.3439                 1.2606
 Frc consts  --      1.2223                 1.2138                 1.2254
 IR Inten    --    121.4840                 0.9178                 2.9584

                     19                     20                     21
                      A                      A                      A
 Frequencies --   1324.1771              1365.1166              1379.2875
 Red. masses --      2.0699                 1.3410                 1.4788
 Frc consts  --      2.1384                 1.4723                 1.6576
 IR Inten    --      4.6319                 6.7681                 2.9831

                     22                     23                     24
                      A                      A                      A
 Frequencies --   1418.5774              1447.0757              1472.7273
 Red. masses --      1.2630                 1.5774                 1.1335
 Frc consts  --      1.4975                 1.9462                 1.4485
 IR Inten    --      8.5708                75.0102                12.3868

                     25                     26                     27
                      A                      A                      A
 Frequencies --   1500.1892              1502.4255              1514.9730
 Red. masses --      1.0447                 1.0394                 1.0873
 Frc consts  --      1.3853                 1.3824                 1.4703
 IR Inten    --      1.0600                11.0527                 8.0715

                     28                     29                     30
                      A                      A                      A
 Frequencies --   2972.6137              3033.7668              3062.9520
 Red. masses --      1.0714                 1.0715                 1.0356
 Frc consts  --      5.5782                 5.8106                 5.7244
 IR Inten    --     40.5925                28.5502                17.9666

                     31                     32                     33
                      A                      A                      A
 Frequencies --   3087.4730              3095.6123              3129.6725
 Red. masses --      1.0880                 1.0915                 1.1019
 Frc consts  --      6.1104                 6.1629                 6.3589
 IR Inten    --     15.2598                18.1021                29.4355

                     34                     35                     36
                      A                      A                      A
 Frequencies --   3138.6585              3225.6542              3883.8070
 Red. masses --      1.1023                 1.0897                 1.0655
 Frc consts  --      6.3982                 6.6800                 9.4695
 IR Inten    --     24.5717                13.4961                42.6373

 - Thermochemistry -
 -------------------
 Temperature   298.150 Kelvin.  Pressure   1.00000 Atm.
 Atom     1 has atomic number  8 and mass  15.99491

 Molecular mass:    73.06534 amu.
 Principal axes and moments of inertia in atomic units:
                           1         2         3
     Eigenvalues --   213.39613 574.11689 640.34393
           X            0.99946  -0.03275   0.00239
           Y            0.03276   0.99945  -0.00562
           Z           -0.00221   0.00570   0.99998
 This molecule is an asymmetric top.
 Rotational symmetry number  1.
 Rotational temperatures (Kelvin)      0.40588     0.15086     0.13526
 Rotational constants (GHZ):           8.45724     3.14351     2.81839
 Zero-point vibrational energy     326451.6 (Joules/Mol)
                                   78.02381 (Kcal/Mol)
 Warning -- explicit consideration of   7 degrees of freedom as
           vibrations may cause significant error
 Vibrational temperatures:     73.16   231.63   332.18   398.07   488.37
          (Kelvin)            569.21   710.10   899.84  1112.25  1231.07
                             1260.54  1387.97  1520.66  1567.82  1604.54
                             1721.35  1781.39  1848.05  1905.20  1964.10
                             1984.49  2041.02  2082.02  2118.93  2158.44
                             2161.66  2179.71  4276.93  4364.91  4406.90
                             4442.19  4453.90  4502.90  4515.83  4641.00
                             5587.93

 Zero-point correction=                           0.124339 (Hartree/Particle)
 Thermal correction to Energy=                    0.131089
 Thermal correction to Enthalpy=                  0.132033
 Thermal correction to Gibbs Free Energy=         0.093473
 Sum of electronic and zero-point Energies=           -232.850033
 Sum of electronic and thermal Energies=              -232.843283
 Sum of electronic and thermal Enthalpies=            -232.842339
 Sum of electronic and thermal Free Energies=         -232.880899

                     E (Thermal)             CV                S
                      KCal/Mol        Cal/Mol-Kelvin    Cal/Mol-Kelvin
 Total                   82.259             23.151             81.156
 Electronic               0.000              0.000              1.377
 Translational            0.889              2.981             38.783
 Rotational               0.889              2.981             25.865
 Vibrational             80.482             17.189             15.131
 Vibration     1          0.595              1.977              4.784
 Vibration     2          0.622              1.890              2.538
 Vibration     3          0.653              1.794              1.872
 Vibration     4          0.678              1.717              1.554
 Vibration     5          0.719              1.597              1.215
 Vibration     6          0.762              1.480              0.979
 Vibration     7          0.849              1.264              0.674

                           ! Non-Optimized Parameters !
 Normal termination of Gaussian 16 at Wed Mar 13 04:22:32 2019.
