 Gaussian 16, Revision A.03,
 Gaussian 16:  EM64L-G16RevA.03 25-Dec-2016

 ----------------------------------------------------------------------
 #p m062x/6-311+g(2df,2p) opt=(calcfc,verytight,gdiis,maxcycles=900) fr
 eq iop(7/33=1,2/16=3)
 ----------------------------------------------------------------------

 ------------------------------
 Gaussian input prepared by ASE
 ------------------------------
 Symbolic Z-matrix:
 Charge =  0 Multiplicity = 2

 SCF Done:  E(UM062X) =  -232.953836637     A.U. after   14 cycles
 SCF Done:  E(UM062X) =  -232.960279122     A.U. after   12 cycles
 SCF Done:  E(UM062X) =  -232.960722859     A.U. after   12 cycles
 SCF Done:  E(UM062X) =  -232.961080361     A.U. after   12 cycles
 SCF Done:  E(UM062X) =  -232.965188047     A.U. after   13 cycles
 SCF Done:  E(UM062X) =  -232.966066621     A.U. after   16 cycles
 SCF Done:  E(UM062X) =  -232.971367647     A.U. after   13 cycles
 SCF Done:  E(UM062X) =  -232.973913364     A.U. after   16 cycles
 SCF Done:  E(UM062X) =  -232.974000529     A.U. after   11 cycles
 SCF Done:  E(UM062X) =  -232.974085193     A.U. after   12 cycles
 SCF Done:  E(UM062X) =  -232.974116633     A.U. after    8 cycles
 SCF Done:  E(UM062X) =  -232.974116644     A.U. after    8 cycles
 SCF Done:  E(UM062X) =  -232.974116682     A.U. after   10 cycles
 SCF Done:  E(UM062X) =  -232.974116694     A.U. after    6 cycles
 SCF Done:  E(UM062X) =  -232.974116694     A.U. after    3 cycles
 SCF Done:  E(UM062X) =  -232.974116694     A.U. after    3 cycles
 SCF Done:  E(UM062X) =  -232.974116694     A.U. after    3 cycles
 SCF Done:  E(UM062X) =  -232.974116694     A.U. after    3 cycles
 SCF Done:  E(UM062X) =  -232.974116694     A.U. after    2 cycles
 Optimization completed.
    -- Stationary point found.
 Normal termination of Gaussian 16 at Tue Apr  9 01:07:38 2019.

 ----------------------------------------------------------------------
 #P Geom=AllCheck Guess=TCheck SCRF=Check Test GenChk UM062X/6-311+G(2d
 f,2p) Freq
 ----------------------------------------------------------------------

 Structure from the checkpoint file:  "/scratch/underkoffler.c/gaussian_scratch/Gau-47886.chk"
 ------------------------------
 Gaussian input prepared by ASE
 ------------------------------
 Charge =  0 Multiplicity = 2

                         Standard orientation:
 ---------------------------------------------------------------------
 Center     Atomic      Atomic             Coordinates (Angstroms)
 Number     Number       Type             X           Y           Z
 ---------------------------------------------------------------------
      1          8           0       -2.455001   -0.331449   -0.048759
      2          6           0        1.175748    0.533671   -0.085182
      3          6           0       -0.057802   -0.351908    0.063634
      4          6           0        2.472284   -0.260110    0.014337
      5          6           0       -1.318358    0.424951   -0.008988
      6          1           0        1.127752    1.052945   -1.044478
      7          1           0        1.157756    1.307401    0.686670
      8          1           0        0.001730   -0.900765    1.015209
      9          1           0       -0.067209   -1.115796   -0.720072
     10          1           0        3.344426    0.382703   -0.097627
     11          1           0        2.547397   -0.762798    0.979423
     12          1           0        2.518091   -1.025582   -0.761349
     13          1           0       -1.392421    1.399463    0.462737
     14          1           0       -3.228738    0.234405   -0.033247
 ---------------------------------------------------------------------

 SCF Done:  E(UM062X) =  -232.974116694     A.U. after    1 cycles

 The electronic state is 2-A.
 Alpha  occ. eigenvalues --  -19.64967 -10.57845 -10.52991 -10.52943 -10.52044
 Alpha  occ. eigenvalues --   -1.17997  -0.89809  -0.81419  -0.71171  -0.66311
 Alpha  occ. eigenvalues --   -0.61167  -0.54228  -0.51977  -0.49239  -0.47750
 Alpha  occ. eigenvalues --   -0.44005  -0.42942  -0.40071  -0.39733  -0.39015
 Alpha  occ. eigenvalues --   -0.22277
 Alpha virt. eigenvalues --    0.01056   0.02429   0.03816   0.04667   0.05443
 Alpha virt. eigenvalues --    0.06292   0.07815   0.08640   0.08941   0.09888
 Alpha virt. eigenvalues --    0.10392   0.11266   0.13897   0.15460   0.16557

  Beta  occ. eigenvalues --  -19.64607 -10.57090 -10.53009 -10.52963 -10.52044
  Beta  occ. eigenvalues --   -1.16694  -0.89362  -0.80428  -0.70197  -0.65378
  Beta  occ. eigenvalues --   -0.60017  -0.53373  -0.51239  -0.47451  -0.46413
  Beta  occ. eigenvalues --   -0.42860  -0.41875  -0.39648  -0.39465  -0.38609
  Beta virt. eigenvalues --   -0.00175   0.01463   0.02400   0.03613   0.04524
  Beta virt. eigenvalues --    0.05243   0.06264   0.08068   0.08223   0.08713
  Beta virt. eigenvalues --    0.09065   0.10407   0.11298   0.12861   0.15205

 Mulliken charges and spin densities:
               1          2
     1  O   -0.280432   0.081515
     2  C   -0.254539   0.053388
     3  C   -0.147947  -0.084851
     4  C   -0.507868  -0.001860
     5  C   -0.244221   0.944651
     6  H    0.160432  -0.010963
     7  H    0.151193  -0.003698
     8  H    0.147555   0.048575
     9  H    0.163839   0.019748
    10  H    0.135571  -0.000359
    11  H    0.136520  -0.001607
    12  H    0.137004  -0.000381
    13  H    0.153618  -0.039267
    14  H    0.249275  -0.004892
 Sum of Mulliken charges =  -0.00000   1.00000

 Dipole moment (field-independent basis, Debye):
    X=             -0.3403    Y=              1.1863    Z=              0.4530  Tot=              1.3146
 Quadrupole moment (field-independent basis, Debye-Ang):
   XX=            -28.5280   YY=            -33.4712   ZZ=            -33.7168
   XY=             -3.7432   XZ=             -0.7793   YZ=              0.7578

  Exact polarizability:  66.082  -0.930  52.052   0.230  -0.816  46.849
 Approx polarizability:  63.527  -0.251  61.496   0.414  -0.377  57.384

                      1                      2                      3
                      A                      A                      A
 Frequencies --     88.8958               110.8322               187.9053
 Red. masses --      2.9595                 1.9823                 2.9775
 Frc consts  --      0.0138                 0.0143                 0.0619
 IR Inten    --      1.6154                 3.1366                 2.8855

                      4                      5                      6
                      A                      A                      A
 Frequencies --    245.9167               361.7782               401.4668
 Red. masses --      1.1055                 1.1188                 2.9189
 Frc consts  --      0.0394                 0.0863                 0.2772
 IR Inten    --      0.2540               121.8942                 2.7171

                      7                      8                      9
                      A                      A                      A
 Frequencies --    445.2275               578.5784               745.9567
 Red. masses --      3.8291                 1.2593                 1.1060
 Frc consts  --      0.4472                 0.2484                 0.3626
 IR Inten    --     11.1902                16.3387                 1.6009

                     10                     11                     12
                      A                      A                      A
 Frequencies --    877.0453               914.9820              1030.5521
 Red. masses --      1.2443                 1.6590                 2.9889
 Frc consts  --      0.5639                 0.8183                 1.8703
 IR Inten    --      1.2365                 9.0760                 1.3674

                     13                     14                     15
                      A                      A                      A
 Frequencies --   1081.3790              1100.1973              1118.8013
 Red. masses --      1.9831                 1.3431                 1.8724
 Frc consts  --      1.3663                 0.9579                 1.3809
 IR Inten    --      6.9369                 3.4147                12.2787

                     16                     17                     18
                      A                      A                      A
 Frequencies --   1222.5623              1239.0138              1255.6394
 Red. masses --      2.4879                 1.4496                 1.3019
 Frc consts  --      2.1909                 1.3111                 1.2094
 IR Inten    --     94.1791                30.5044                16.5643

                     19                     20                     21
                      A                      A                      A
 Frequencies --   1318.0605              1319.7019              1389.2105
 Red. masses --      1.4579                 1.1022                 1.5150
 Frc consts  --      1.4923                 1.1310                 1.7227
 IR Inten    --     53.1983                 1.6283                 3.3431

                     22                     23                     24
                      A                      A                      A
 Frequencies --   1415.5137              1464.8439              1487.2925
 Red. masses --      1.2789                 1.6432                 1.1984
 Frc consts  --      1.5098                 2.0774                 1.5619
 IR Inten    --      3.0313                21.3738                 8.1434

                     25                     26                     27
                      A                      A                      A
 Frequencies --   1498.3776              1505.6537              1514.2067
 Red. masses --      1.0614                 1.0398                 1.0895
 Frc consts  --      1.4041                 1.3889                 1.4718
 IR Inten    --      2.8524                 7.6863                 5.3469

                     28                     29                     30
                      A                      A                      A
 Frequencies --   2976.3381              3048.5629              3056.3552
 Red. masses --      1.0706                 1.0754                 1.0675
 Frc consts  --      5.5878                 5.8887                 5.8750
 IR Inten    --     30.4925                 3.9003                16.8950

                     31                     32                     33
                      A                      A                      A
 Frequencies --   3060.8704              3089.4822              3126.9127
 Red. masses --      1.0398                 1.1023                 1.1029
 Frc consts  --      5.7397                 6.1991                 6.3535
 IR Inten    --     35.4835                12.8611                37.2985

                     34                     35                     36
                      A                      A                      A
 Frequencies --   3136.0860              3153.4928              3914.5080
 Red. masses --      1.1016                 1.0884                 1.0665
 Frc consts  --      6.3833                 6.3770                 9.6284
 IR Inten    --     26.2252                28.0635                82.6028

 - Thermochemistry -
 -------------------
 Temperature   298.150 Kelvin.  Pressure   1.00000 Atm.
 Atom     1 has atomic number  8 and mass  15.99491

 Molecular mass:    73.06534 amu.
 Principal axes and moments of inertia in atomic units:
                           1         2         3
     Eigenvalues --    83.61638 896.94836 944.29919
           X            0.99990  -0.01355  -0.00270
           Y            0.01362   0.99959   0.02503
           Z            0.00236  -0.02506   0.99968
 This molecule is an asymmetric top.
 Rotational symmetry number  1.
 Rotational temperatures (Kelvin)      1.03585     0.09657     0.09172
 Rotational constants (GHZ):          21.58359     2.01209     1.91120
 Zero-point vibrational energy     325875.9 (Joules/Mol)
                                   77.88621 (Kcal/Mol)
 Warning -- explicit consideration of   8 degrees of freedom as
           vibrations may cause significant error
 Vibrational temperatures:    127.90   159.46   270.35   353.82   520.52
          (Kelvin)            577.62   640.58   832.45  1073.27  1261.87
                             1316.46  1482.73  1555.86  1582.94  1609.71
                             1758.99  1782.66  1806.59  1896.40  1898.76
                             1998.76  2036.61  2107.58  2139.88  2155.83
                             2166.30  2178.61  4282.29  4386.20  4397.41
                             4403.91  4445.08  4498.93  4512.13  4537.17
                             5632.10

 Zero-point correction=                           0.124120 (Hartree/Particle)
 Thermal correction to Energy=                    0.131008
 Thermal correction to Enthalpy=                  0.131952
 Thermal correction to Gibbs Free Energy=         0.093322
 Sum of electronic and zero-point Energies=           -232.849997
 Sum of electronic and thermal Energies=              -232.843109
 Sum of electronic and thermal Enthalpies=            -232.842165
 Sum of electronic and thermal Free Energies=         -232.880794

                     E (Thermal)             CV                S
                      KCal/Mol        Cal/Mol-Kelvin    Cal/Mol-Kelvin
 Total                   82.209             23.308             81.302
 Electronic               0.000              0.000              1.377
 Translational            0.889              2.981             38.783
 Rotational               0.889              2.981             25.763
 Vibrational             80.431             17.347             15.380
 Vibration     1          0.602              1.957              3.684
 Vibration     2          0.607              1.941              3.254
 Vibration     3          0.633              1.856              2.248
 Vibration     4          0.660              1.770              1.760
 Vibration     5          0.736              1.551              1.114
 Vibration     6          0.767              1.467              0.957
 Vibration     7          0.805              1.371              0.810
 Vibration     8          0.935              1.078              0.488

                           ! Non-Optimized Parameters !
 Normal termination of Gaussian 16 at Tue Apr  9 01:12:33 2019.
