 Gaussian 16, Revision A.03,
 Gaussian 16:  EM64L-G16RevA.03 25-Dec-2016

 ----------------------------------------------
 #p m062x/6-311+g(2df,2p) Opt=(CalcFC,ModRedun)
 ----------------------------------------------

 ----------------------------------------
 Gaussian Input Prepared from Scan Object
 ----------------------------------------
 Symbolic Z-matrix:
 Charge =  0 Multiplicity = 2

 SCF Done:  E(UM062X) =  -232.974897498     A.U. after   14 cycles

  Exact polarizability:   0.000   0.000   0.000   0.000   0.000   0.000
 Approx polarizability:  61.175  -2.248  60.538   0.688   0.341  61.285

 Optimization completed.
    -- Stationary point found.
 SCF Done:  E(UM062X) =  -232.971808020     A.U. after   13 cycles
 SCF Done:  E(UM062X) =  -232.973407859     A.U. after   13 cycles
 SCF Done:  E(UM062X) =  -232.973431153     A.U. after   10 cycles
 SCF Done:  E(UM062X) =  -232.973433788     A.U. after   10 cycles
 SCF Done:  E(UM062X) =  -232.973433883     A.U. after    9 cycles
 Optimization completed.
 SCF Done:  E(UM062X) =  -232.966726759     A.U. after   13 cycles
 SCF Done:  E(UM062X) =  -232.969926853     A.U. after   13 cycles
 SCF Done:  E(UM062X) =  -232.970000872     A.U. after   12 cycles
 SCF Done:  E(UM062X) =  -232.970002136     A.U. after    8 cycles
    -- Stationary point found.
 SCF Done:  E(UM062X) =  -232.973244920     A.U. after   14 cycles
 SCF Done:  E(UM062X) =  -232.972308019     A.U. after   14 cycles
 SCF Done:  E(UM062X) =  -232.974594348     A.U. after   13 cycles
 SCF Done:  E(UM062X) =  -232.974740748     A.U. after   12 cycles
 SCF Done:  E(UM062X) =  -232.974813602     A.U. after   12 cycles
 SCF Done:  E(UM062X) =  -232.974886889     A.U. after   12 cycles
 SCF Done:  E(UM062X) =  -232.974897082     A.U. after   11 cycles
 SCF Done:  E(UM062X) =  -232.974897279     A.U. after   11 cycles
 SCF Done:  E(UM062X) =  -232.974897467     A.U. after    9 cycles
 SCF Done:  E(UM062X) =  -232.974897499     A.U. after    9 cycles
 Optimization completed.
    -- Stationary point found.

                         Standard orientation:
 ---------------------------------------------------------------------
 Center     Atomic      Atomic             Coordinates (Angstroms)
 Number     Number       Type             X           Y           Z
 ---------------------------------------------------------------------
      1          8           0        1.691848   -0.654798   -0.408986
      2          6           0       -1.076223    0.279397   -0.596010
      3          6           0        0.072220    1.043211    0.074299
      4          6           0       -1.761755   -0.698177    0.350989
      5          6           0        1.158037    0.153339    0.556368
      6          1           0       -1.800724    1.001802   -0.975507
      7          1           0       -0.683813   -0.257619   -1.460610
      8          1           0        0.474352    1.774872   -0.640245
      9          1           0       -0.307268    1.611199    0.926350
     10          1           0       -2.147924   -0.180760    1.231083
     11          1           0       -2.596034   -1.202159   -0.135650
     12          1           0       -1.060486   -1.458264    0.695231
     13          1           0        1.814741    0.447902    1.365802
     14          1           0        2.418709   -1.165212   -0.048442
 ---------------------------------------------------------------------

 The electronic state is 2-A.
 Alpha  occ. eigenvalues --  -19.65044 -10.57882 -10.52981 -10.52269 -10.51230
 Alpha  occ. eigenvalues --   -1.18062  -0.89323  -0.80735  -0.71841  -0.65405
 Alpha  occ. eigenvalues --   -0.61209  -0.53231  -0.51968  -0.49067  -0.46891
 Alpha  occ. eigenvalues --   -0.44539  -0.43277  -0.39664  -0.38711  -0.38437
 Alpha  occ. eigenvalues --   -0.22281
 Alpha virt. eigenvalues --    0.01006   0.02786   0.03542   0.04266   0.06218
 Alpha virt. eigenvalues --    0.06341   0.07783   0.08180   0.08549   0.10956
 Alpha virt. eigenvalues --    0.11590   0.12295   0.12553   0.13008   0.15802

  Beta  occ. eigenvalues --  -19.64693 -10.57134 -10.53031 -10.52232 -10.51224
  Beta  occ. eigenvalues --   -1.16777  -0.88780  -0.79786  -0.70582  -0.64954
  Beta  occ. eigenvalues --   -0.59783  -0.52167  -0.50996  -0.48092  -0.45145
  Beta  occ. eigenvalues --   -0.43381  -0.42445  -0.38923  -0.38566  -0.38107
  Beta virt. eigenvalues --   -0.00125   0.01560   0.02853   0.03554   0.03874
  Beta virt. eigenvalues --    0.06199   0.06347   0.07636   0.08125   0.08475
  Beta virt. eigenvalues --    0.10736   0.11127   0.12364   0.12479   0.12824

 Mulliken charges and spin densities:
               1          2
     1  O   -0.281014   0.070493
     2  C   -0.224402  -0.006834
     3  C   -0.301134  -0.027746
     4  C   -0.458608   0.023714
     5  C   -0.225512   0.962523
     6  H    0.144677  -0.001943
     7  H    0.181090  -0.001371
     8  H    0.161428   0.040282
     9  H    0.164707   0.000472
    10  H    0.132766  -0.003572
    11  H    0.133919  -0.000449
    12  H    0.145438  -0.011986
    13  H    0.161767  -0.038923
    14  H    0.264878  -0.004660
 Sum of Mulliken charges =  -0.00000   1.00000

 Dipole moment (field-independent basis, Debye):
    X=              0.9942    Y=              0.0192    Z=              0.8315  Tot=              1.2962
 Quadrupole moment (field-independent basis, Debye-Ang):
   XX=            -28.5988   YY=            -31.9980   ZZ=            -34.0933
   XY=             -2.5936   XZ=              2.4134   YZ=              0.0197

 Normal termination of Gaussian 16 at Fri Mar 29 01:27:45 2019.
