 Gaussian 16, Revision A.03,
 Gaussian 16:  EM64L-G16RevA.03 25-Dec-2016

 ----------------------------------------------------------------------
 #p m062x/6-311+g(2df,2p) opt=(calcfc,verytight,gdiis,maxcycles=900) fr
 eq iop(7/33=1,2/16=3)
 ----------------------------------------------------------------------

 ------------------------------
 Gaussian input prepared by ASE
 ------------------------------
 Symbolic Z-matrix:
 Charge =  0 Multiplicity = 2

 SCF Done:  E(UM062X) =  -232.953181605     A.U. after   14 cycles
 SCF Done:  E(UM062X) =  -232.959660555     A.U. after   12 cycles
 SCF Done:  E(UM062X) =  -232.960673788     A.U. after   12 cycles
 SCF Done:  E(UM062X) =  -232.960918391     A.U. after   15 cycles
 SCF Done:  E(UM062X) =  -232.964344493     A.U. after   13 cycles
 SCF Done:  E(UM062X) =  -232.967109742     A.U. after   12 cycles
 SCF Done:  E(UM062X) =  -232.962224085     A.U. after   15 cycles
 SCF Done:  E(UM062X) =  -232.971344060     A.U. after   12 cycles
 SCF Done:  E(UM062X) =  -232.972998529     A.U. after   12 cycles
 SCF Done:  E(UM062X) =  -232.973327642     A.U. after   12 cycles
 SCF Done:  E(UM062X) =  -232.973865508     A.U. after   10 cycles
 SCF Done:  E(UM062X) =  -232.973865659     A.U. after    8 cycles
 SCF Done:  E(UM062X) =  -232.973865661     A.U. after    9 cycles
 SCF Done:  E(UM062X) =  -232.973865695     A.U. after    7 cycles
 SCF Done:  E(UM062X) =  -232.973865694     A.U. after    5 cycles
 SCF Done:  E(UM062X) =  -232.973865694     A.U. after    2 cycles
 SCF Done:  E(UM062X) =  -232.973865694     A.U. after    2 cycles
 SCF Done:  E(UM062X) =  -232.973865694     A.U. after    2 cycles
 SCF Done:  E(UM062X) =  -232.973865694     A.U. after    2 cycles
 Optimization completed.
    -- Stationary point found.
 Normal termination of Gaussian 16 at Tue Apr  9 01:27:42 2019.

 ----------------------------------------------------------------------
 #P Geom=AllCheck Guess=TCheck SCRF=Check Test GenChk UM062X/6-311+G(2d
 f,2p) Freq
 ----------------------------------------------------------------------

 Structure from the checkpoint file:  "/scratch/underkoffler.c/gaussian_scratch/Gau-17704.chk"
 ------------------------------
 Gaussian input prepared by ASE
 ------------------------------
 Charge =  0 Multiplicity = 2

                         Standard orientation:
 ---------------------------------------------------------------------
 Center     Atomic      Atomic             Coordinates (Angstroms)
 Number     Number       Type             X           Y           Z
 ---------------------------------------------------------------------
      1          8           0       -2.526497   -0.189634    0.006845
      2          6           0        1.174624    0.528393    0.104173
      3          6           0       -0.070870   -0.333860   -0.081042
      4          6           0        2.461888   -0.276284   -0.022269
      5          6           0       -1.325620    0.457143    0.020177
      6          1           0        1.164719    1.329202   -0.638922
      7          1           0        1.128171    1.012582    1.081377
      8          1           0       -0.075374   -1.128312    0.676593
      9          1           0       -0.012575   -0.847028   -1.053576
     10          1           0        2.534363   -0.743531   -1.005171
     11          1           0        3.340265    0.352792    0.114844
     12          1           0        2.499073   -1.069872    0.725295
     13          1           0       -1.391808    1.444905   -0.414696
     14          1           0       -2.414984   -1.086022    0.333259
 ---------------------------------------------------------------------

 SCF Done:  E(UM062X) =  -232.973865694     A.U. after    1 cycles

 The electronic state is 2-A.
 Alpha  occ. eigenvalues --  -19.64894 -10.57768 -10.54015 -10.53530 -10.52543
 Alpha  occ. eigenvalues --   -1.17993  -0.90285  -0.81472  -0.72408  -0.67971
 Alpha  occ. eigenvalues --   -0.57793  -0.55494  -0.53012  -0.49563  -0.47437
 Alpha  occ. eigenvalues --   -0.45371  -0.44307  -0.40653  -0.39703  -0.39151
 Alpha  occ. eigenvalues --   -0.22276
 Alpha virt. eigenvalues --    0.01583   0.02340   0.03507   0.04327   0.05675
 Alpha virt. eigenvalues --    0.05997   0.07700   0.07952   0.08251   0.09924
 Alpha virt. eigenvalues --    0.10187   0.11637   0.12924   0.14622   0.16515

  Beta  occ. eigenvalues --  -19.64535 -10.57011 -10.54055 -10.53521 -10.52544
  Beta  occ. eigenvalues --   -1.16686  -0.89877  -0.80502  -0.70917  -0.67659
  Beta  occ. eigenvalues --   -0.56540  -0.54600  -0.52201  -0.47958  -0.46347
  Beta  occ. eigenvalues --   -0.44507  -0.42616  -0.40432  -0.39423  -0.38542
  Beta virt. eigenvalues --   -0.00048   0.01688   0.02268   0.03436   0.04101
  Beta virt. eigenvalues --    0.05629   0.06047   0.07430   0.07664   0.08551
  Beta virt. eigenvalues --    0.09150   0.10187   0.11806   0.12071   0.14520

 Mulliken charges and spin densities:
               1          2
     1  O   -0.301422   0.083395
     2  C   -0.257797   0.054026
     3  C   -0.178199  -0.060124
     4  C   -0.497412  -0.003203
     5  C   -0.207248   0.919729
     6  H    0.157278  -0.003539
     7  H    0.163692  -0.011086
     8  H    0.141323   0.018976
     9  H    0.155200   0.048557
    10  H    0.136535  -0.001741
    11  H    0.137433  -0.000335
    12  H    0.134836  -0.000397
    13  H    0.163082  -0.040380
    14  H    0.252696  -0.003878
 Sum of Mulliken charges =  -0.00000   1.00000

 Dipole moment (field-independent basis, Debye):
    X=              1.3093    Y=             -1.0915    Z=              0.0859  Tot=              1.7067
 Quadrupole moment (field-independent basis, Debye-Ang):
   XX=            -37.8329   YY=            -30.6230   ZZ=            -33.4508
   XY=              3.1484   XZ=             -0.6847   YZ=             -1.6712

  Exact polarizability:  64.417   0.373  53.149  -0.373   0.645  46.948
 Approx polarizability:  62.595   0.829  62.825  -0.358  -0.122  57.702

                      1                      2                      3
                      A                      A                      A
 Frequencies --     97.6936               111.4933               187.5625
 Red. masses --      2.6811                 1.8813                 3.1197
 Frc consts  --      0.0151                 0.0138                 0.0647
 IR Inten    --      0.1970                 3.9562                 2.6411

                      4                      5                      6
                      A                      A                      A
 Frequencies --    243.5921               353.5952               399.3156
 Red. masses --      1.1102                 1.2668                 3.1376
 Frc consts  --      0.0388                 0.0933                 0.2948
 IR Inten    --      0.1484                68.3666                 4.8300

                      7                      8                      9
                      A                      A                      A
 Frequencies --    447.2380               592.6306               747.0624
 Red. masses --      3.3160                 1.1808                 1.1059
 Frc consts  --      0.3908                 0.2443                 0.3636
 IR Inten    --      1.9539                54.1368                 1.9858

                     10                     11                     12
                      A                      A                      A
 Frequencies --    877.6699               916.9455              1028.0719
 Red. masses --      1.2502                 1.6500                 3.5798
 Frc consts  --      0.5674                 0.8174                 2.2293
 IR Inten    --      1.1793                 0.0774                27.2970

                     13                     14                     15
                      A                      A                      A
 Frequencies --   1079.8551              1093.0561              1122.1922
 Red. masses --      2.1112                 1.3239                 1.8924
 Frc consts  --      1.4505                 0.9320                 1.4041
 IR Inten    --      1.4844                25.9041                24.6368

                     16                     17                     18
                      A                      A                      A
 Frequencies --   1216.9030              1248.1634              1255.9058
 Red. masses --      1.6997                 1.7720                 1.3400
 Frc consts  --      1.4829                 1.6265                 1.2453
 IR Inten    --     87.2966                26.4881                 0.2983

                     19                     20                     21
                      A                      A                      A
 Frequencies --   1320.5864              1340.5569              1397.0235
 Red. masses --      1.0989                 1.5483                 1.4626
 Frc consts  --      1.1291                 1.6394                 1.6819
 IR Inten    --      0.5145                 2.3403                 9.0017

                     22                     23                     24
                      A                      A                      A
 Frequencies --   1416.0283              1450.7471              1482.7851
 Red. masses --      1.2777                 1.7226                 1.1242
 Frc consts  --      1.5094                 2.1361                 1.4563
 IR Inten    --      3.4870                95.0928                 5.7324

                     25                     26                     27
                      A                      A                      A
 Frequencies --   1498.0230              1505.7717              1513.4487
 Red. masses --      1.0544                 1.0398                 1.0848
 Frc consts  --      1.3941                 1.3890                 1.4640
 IR Inten    --      1.8501                 7.9363                 5.1013

                     28                     29                     30
                      A                      A                      A
 Frequencies --   2963.2730              3012.4349              3057.8220
 Red. masses --      1.0678                 1.0886                 1.0526
 Frc consts  --      5.5242                 5.8202                 5.7987
 IR Inten    --     36.0095                19.6118                 8.6670

                     31                     32                     33
                      A                      A                      A
 Frequencies --   3061.8797              3093.6932              3127.3827
 Red. masses --      1.0438                 1.1028                 1.1030
 Frc consts  --      5.7653                 6.2189                 6.3562
 IR Inten    --     37.7902                 8.1587                38.1743

                     34                     35                     36
                      A                      A                      A
 Frequencies --   3137.1547              3206.6109              3885.2213
 Red. masses --      1.1014                 1.0886                 1.0660
 Frc consts  --      6.3867                 6.5950                 9.4802
 IR Inten    --     25.6814                13.0571                50.9989

 - Thermochemistry -
 -------------------
 Temperature   298.150 Kelvin.  Pressure   1.00000 Atm.
 Atom     1 has atomic number  8 and mass  15.99491

 Molecular mass:    73.06534 amu.
 Principal axes and moments of inertia in atomic units:
                           1         2         3
     Eigenvalues --    85.22580 898.58477 946.57855
           X            1.00000  -0.00023  -0.00064
           Y            0.00021   0.99910  -0.04231
           Z            0.00065   0.04231   0.99910
 This molecule is an asymmetric top.
 Rotational symmetry number  1.
 Rotational temperatures (Kelvin)      1.01629     0.09639     0.09150
 Rotational constants (GHZ):          21.17600     2.00843     1.90659
 Zero-point vibrational energy     325918.9 (Joules/Mol)
                                   77.89649 (Kcal/Mol)
 Warning -- explicit consideration of   8 degrees of freedom as
           vibrations may cause significant error
 Vibrational temperatures:    140.56   160.41   269.86   350.47   508.74
          (Kelvin)            574.53   643.48   852.66  1074.86  1262.77
                             1319.28  1479.17  1553.67  1572.66  1614.58
                             1750.85  1795.83  1806.97  1900.03  1928.76
                             2010.01  2037.35  2087.30  2133.40  2155.32
                             2166.47  2177.52  4263.49  4334.22  4399.52
                             4405.36  4451.13  4499.61  4513.67  4613.60
                             5589.97

 Zero-point correction=                           0.124136 (Hartree/Particle)
 Thermal correction to Energy=                    0.131010
 Thermal correction to Enthalpy=                  0.131954
 Thermal correction to Gibbs Free Energy=         0.093393
 Sum of electronic and zero-point Energies=           -232.849730
 Sum of electronic and thermal Energies=              -232.842856
 Sum of electronic and thermal Enthalpies=            -232.841912
 Sum of electronic and thermal Free Energies=         -232.880473

                     E (Thermal)             CV                S
                      KCal/Mol        Cal/Mol-Kelvin    Cal/Mol-Kelvin
 Total                   82.210             23.285             81.159
 Electronic               0.000              0.000              1.377
 Translational            0.889              2.981             38.783
 Rotational               0.889              2.981             25.786
 Vibrational             80.432             17.323             15.213
 Vibration     1          0.603              1.951              3.500
 Vibration     2          0.607              1.940              3.243
 Vibration     3          0.632              1.857              2.252
 Vibration     4          0.659              1.773              1.776
 Vibration     5          0.730              1.568              1.150
 Vibration     6          0.765              1.472              0.965
 Vibration     7          0.806              1.367              0.804
 Vibration     8          0.950              1.047              0.463

                           ! Non-Optimized Parameters !
 Normal termination of Gaussian 16 at Tue Apr  9 01:36:53 2019.
