 Gaussian 16, Revision A.03,
 Gaussian 16:  EM64L-G16RevA.03 25-Dec-2016

 ----------------------------------------------------------------------
 #p m062x/6-311+g(2df,2p) opt=(calcfc,verytight,gdiis,maxcycles=900) fr
 eq iop(7/33=1,2/16=3)
 ----------------------------------------------------------------------

 ------------------------------
 Gaussian input prepared by ASE
 ------------------------------
 Symbolic Z-matrix:
 Charge =  0 Multiplicity = 2

 SCF Done:  E(UM062X) =  -232.949908495     A.U. after   14 cycles
 SCF Done:  E(UM062X) =  -232.958717207     A.U. after   13 cycles
 SCF Done:  E(UM062X) =  -232.959951224     A.U. after   12 cycles
 SCF Done:  E(UM062X) =  -232.962741607     A.U. after   15 cycles
 SCF Done:  E(UM062X) =  -232.964851667     A.U. after   13 cycles
 SCF Done:  E(UM062X) =  -232.967126131     A.U. after   13 cycles
 SCF Done:  E(UM062X) =  -232.967969373     A.U. after   12 cycles
 SCF Done:  E(UM062X) =  -232.969087128     A.U. after   12 cycles
 SCF Done:  E(UM062X) =  -232.970141414     A.U. after   13 cycles
 SCF Done:  E(UM062X) =  -232.970952209     A.U. after   12 cycles
 SCF Done:  E(UM062X) =  -232.973804705     A.U. after   10 cycles
 SCF Done:  E(UM062X) =  -232.973806252     A.U. after   10 cycles
 SCF Done:  E(UM062X) =  -232.973806561     A.U. after    9 cycles
 SCF Done:  E(UM062X) =  -232.973806573     A.U. after    7 cycles
 SCF Done:  E(UM062X) =  -232.973806574     A.U. after    6 cycles
 SCF Done:  E(UM062X) =  -232.973806574     A.U. after    3 cycles
 SCF Done:  E(UM062X) =  -232.973806574     A.U. after    3 cycles
 SCF Done:  E(UM062X) =  -232.973806574     A.U. after    3 cycles
 SCF Done:  E(UM062X) =  -232.973806574     A.U. after    2 cycles
 Optimization completed.
    -- Stationary point found.
 Normal termination of Gaussian 16 at Tue Apr  9 00:46:58 2019.

 ----------------------------------------------------------------------
 #P Geom=AllCheck Guess=TCheck SCRF=Check Test GenChk UM062X/6-311+G(2d
 f,2p) Freq
 ----------------------------------------------------------------------

 Structure from the checkpoint file:  "/scratch/underkoffler.c/gaussian_scratch/Gau-20463.chk"
 ------------------------------
 Gaussian input prepared by ASE
 ------------------------------
 Charge =  0 Multiplicity = 2

                         Standard orientation:
 ---------------------------------------------------------------------
 Center     Atomic      Atomic             Coordinates (Angstroms)
 Number     Number       Type             X           Y           Z
 ---------------------------------------------------------------------
      1          8           0        1.659584   -0.747609   -0.197820
      2          6           0       -1.313016    0.502742    0.180553
      3          6           0        0.035598    1.026177   -0.348448
      4          6           0       -1.485149   -0.999564   -0.007064
      5          6           0        1.228941    0.445824    0.313771
      6          1           0       -1.398523    0.755757    1.240069
      7          1           0       -2.116520    1.035489   -0.333251
      8          1           0        0.062772    2.111503   -0.229105
      9          1           0        0.106632    0.817432   -1.419454
     10          1           0       -2.464280   -1.329737    0.338576
     11          1           0       -1.386635   -1.271766   -1.058915
     12          1           0       -0.724967   -1.552810    0.543065
     13          1           0        1.440025    0.636146    1.360327
     14          1           0        2.406574   -1.072225    0.308376
 ---------------------------------------------------------------------

 SCF Done:  E(UM062X) =  -232.973806574     A.U. after    1 cycles

 The electronic state is 2-A.
 Alpha  occ. eigenvalues --  -19.65041 -10.57784 -10.52983 -10.52754 -10.51287
 Alpha  occ. eigenvalues --   -1.18020  -0.89418  -0.80860  -0.71890  -0.65189
 Alpha  occ. eigenvalues --   -0.61926  -0.53444  -0.51437  -0.48162  -0.47728
 Alpha  occ. eigenvalues --   -0.45312  -0.42322  -0.39918  -0.39606  -0.38557
 Alpha  occ. eigenvalues --   -0.21982
 Alpha virt. eigenvalues --    0.01186   0.02638   0.03596   0.04341   0.06143
 Alpha virt. eigenvalues --    0.06928   0.07749   0.07779   0.08118   0.11038
 Alpha virt. eigenvalues --    0.11752   0.12061   0.12236   0.12756   0.15274

  Beta  occ. eigenvalues --  -19.64665 -10.57034 -10.53033 -10.52661 -10.51290
  Beta  occ. eigenvalues --   -1.16680  -0.88829  -0.79851  -0.70664  -0.64571
  Beta  occ. eigenvalues --   -0.60655  -0.52563  -0.50503  -0.47256  -0.46424
  Beta  occ. eigenvalues --   -0.43132  -0.41599  -0.39445  -0.38977  -0.38268
  Beta virt. eigenvalues --    0.00301   0.01066   0.02841   0.03579   0.04325
  Beta virt. eigenvalues --    0.05965   0.06907   0.07622   0.07964   0.08235
  Beta virt. eigenvalues --    0.10923   0.11257   0.11895   0.12064   0.12714

 Mulliken charges and spin densities:
               1          2
     1  O   -0.263077   0.079253
     2  C   -0.255664   0.074451
     3  C   -0.299471  -0.035141
     4  C   -0.473187  -0.009731
     5  C   -0.211415   0.932845
     6  H    0.163481  -0.012079
     7  H    0.144864   0.003471
     8  H    0.151213   0.006712
     9  H    0.187881   0.009053
    10  H    0.135576   0.000059
    11  H    0.147503   0.000634
    12  H    0.152483  -0.001375
    13  H    0.157443  -0.043650
    14  H    0.262371  -0.004502
 Sum of Mulliken charges =  -0.00000   1.00000

 Dipole moment (field-independent basis, Debye):
    X=              0.5064    Y=              0.0194    Z=              1.1670  Tot=              1.2723
 Quadrupole moment (field-independent basis, Debye-Ang):
   XX=            -30.1229   YY=            -33.2140   ZZ=            -32.5378
   XY=             -2.5061   XZ=              3.1445   YZ=             -0.9982

  Exact polarizability:  60.096  -0.348  55.352   1.012   0.352  49.046
 Approx polarizability:  62.809  -1.984  61.548   1.101   0.800  60.100

                      1                      2                      3
                      A                      A                      A
 Frequencies --     91.7485               116.7241               241.1726
 Red. masses --      2.2359                 2.6518                 1.2775
 Frc consts  --      0.0111                 0.0213                 0.0438
 IR Inten    --      4.7895                 0.6635                 7.1836

                      4                      5                      6
                      A                      A                      A
 Frequencies --    292.9064               331.2200               380.0430
 Red. masses --      1.3128                 1.9026                 1.4898
 Frc consts  --      0.0664                 0.1230                 0.1268
 IR Inten    --     35.9383                51.2023                37.9631

                      7                      8                      9
                      A                      A                      A
 Frequencies --    466.9609               576.6926               783.6426
 Red. masses --      1.6166                 2.0019                 1.2337
 Frc consts  --      0.2077                 0.3923                 0.4464
 IR Inten    --      8.7304                24.3490                 4.2676

                     10                     11                     12
                      A                      A                      A
 Frequencies --    837.6802               893.0111               971.7690
 Red. masses --      2.5507                 1.5052                 1.9247
 Frc consts  --      1.0546                 0.7072                 1.0709
 IR Inten    --      1.5022                 7.2370                 0.6756

                     13                     14                     15
                      A                      A                      A
 Frequencies --   1062.2392              1087.4225              1106.6612
 Red. masses --      1.5284                 2.3831                 1.3885
 Frc consts  --      1.0161                 1.6603                 1.0019
 IR Inten    --      8.2298                 5.9050                11.9628

                     16                     17                     18
                      A                      A                      A
 Frequencies --   1221.9460              1226.4194              1283.2368
 Red. masses --      2.1481                 1.3304                 1.2792
 Frc consts  --      1.8898                 1.1790                 1.2411
 IR Inten    --     85.4296                 1.1356                 2.0188

                     19                     20                     21
                      A                      A                      A
 Frequencies --   1314.6120              1343.2539              1373.8572
 Red. masses --      1.5181                 1.2254                 1.3532
 Frc consts  --      1.5458                 1.3027                 1.5049
 IR Inten    --     80.5055                 2.1830                 4.9727

                     22                     23                     24
                      A                      A                      A
 Frequencies --   1420.5527              1456.7375              1478.1357
 Red. masses --      1.2736                 1.3154                 1.3816
 Frc consts  --      1.5143                 1.6446                 1.7785
 IR Inten    --      4.4882                 6.6856                13.3802

                     25                     26                     27
                      A                      A                      A
 Frequencies --   1493.9436              1503.9550              1510.2268
 Red. masses --      1.0836                 1.0411                 1.0932
 Frc consts  --      1.4250                 1.3874                 1.4690
 IR Inten    --      2.0751                 8.6264                10.2285

                     28                     29                     30
                      A                      A                      A
 Frequencies --   3049.1878              3050.9320              3062.6454
 Red. masses --      1.0594                 1.0616                 1.0363
 Frc consts  --      5.8034                 5.8221                 5.7271
 IR Inten    --     19.2572                22.3444                21.7873

                     31                     32                     33
                      A                      A                      A
 Frequencies --   3084.4027              3097.8263              3129.3672
 Red. masses --      1.1011                 1.1031                 1.1019
 Frc consts  --      6.1718                 6.2368                 6.3575
 IR Inten    --     21.1959                19.0453                30.3210

                     34                     35                     36
                      A                      A                      A
 Frequencies --   3139.7850              3160.5747              3911.1325
 Red. masses --      1.1020                 1.0887                 1.0664
 Frc consts  --      6.4009                 6.4073                 9.6114
 IR Inten    --     25.8614                28.9677                80.2087

 - Thermochemistry -
 -------------------
 Temperature   298.150 Kelvin.  Pressure   1.00000 Atm.
 Atom     1 has atomic number  8 and mass  15.99491

 Molecular mass:    73.06534 amu.
 Principal axes and moments of inertia in atomic units:
                           1         2         3
     Eigenvalues --   228.77165 510.88075 662.02194
           X            0.99973   0.01855   0.01381
           Y           -0.01841   0.99978  -0.01035
           Z           -0.01400   0.01009   0.99985
 This molecule is an asymmetric top.
 Rotational symmetry number  1.
 Rotational temperatures (Kelvin)      0.37860     0.16954     0.13083
 Rotational constants (GHZ):           7.88883     3.53261     2.72610
 Zero-point vibrational energy     326297.2 (Joules/Mol)
                                   77.98689 (Kcal/Mol)
 Warning -- explicit consideration of   8 degrees of freedom as
           vibrations may cause significant error
 Vibrational temperatures:    132.01   167.94   346.99   421.43   476.55
          (Kelvin)            546.80   671.85   829.73  1127.49  1205.24
                             1284.84  1398.16  1528.33  1564.56  1592.24
                             1758.11  1764.54  1846.29  1891.43  1932.64
                             1976.67  2043.86  2095.92  2126.71  2149.45
                             2163.86  2172.88  4387.10  4389.61  4406.46
                             4437.77  4457.08  4502.46  4517.45  4547.36
                             5627.25

 Zero-point correction=                           0.124280 (Hartree/Particle)
 Thermal correction to Energy=                    0.131060
 Thermal correction to Enthalpy=                  0.132004
 Thermal correction to Gibbs Free Energy=         0.093676
 Sum of electronic and zero-point Energies=           -232.849527
 Sum of electronic and thermal Energies=              -232.842747
 Sum of electronic and thermal Enthalpies=            -232.841803
 Sum of electronic and thermal Free Energies=         -232.880130

                     E (Thermal)             CV                S
                      KCal/Mol        Cal/Mol-Kelvin    Cal/Mol-Kelvin
 Total                   82.241             23.325             80.668
 Electronic               0.000              0.000              1.377
 Translational            0.889              2.981             38.783
 Rotational               0.889              2.981             25.851
 Vibrational             80.464             17.363             14.657
 Vibration     1          0.602              1.955              3.622
 Vibration     2          0.608              1.935              3.154
 Vibration     3          0.658              1.777              1.794
 Vibration     4          0.688              1.687              1.457
 Vibration     5          0.714              1.613              1.254
 Vibration     6          0.750              1.513              1.039
 Vibration     7          0.824              1.323              0.746
 Vibration     8          0.933              1.082              0.492

                           ! Non-Optimized Parameters !
 Normal termination of Gaussian 16 at Tue Apr  9 00:52:20 2019.
