 Gaussian 16, Revision A.03,
 Gaussian 16:  EM64L-G16RevA.03 25-Dec-2016

 ----------------------------------------------------------------------
 #p m062x/6-311+g(2df,2p) opt=(calcfc,verytight,gdiis,maxcycles=900) fr
 eq iop(7/33=1,2/16=3)
 ----------------------------------------------------------------------

 ------------------------------
 Gaussian input prepared by ASE
 ------------------------------
 Symbolic Z-matrix:
 Charge =  0 Multiplicity = 2

 SCF Done:  E(UM062X) =  -232.949021977     A.U. after   15 cycles
 SCF Done:  E(UM062X) =  -232.957964983     A.U. after   13 cycles
 SCF Done:  E(UM062X) =  -232.958721193     A.U. after   12 cycles
 SCF Done:  E(UM062X) =  -232.959360546     A.U. after   12 cycles
 SCF Done:  E(UM062X) =  -232.963587441     A.U. after   16 cycles
 SCF Done:  E(UM062X) =  -232.962107579     A.U. after   15 cycles
 SCF Done:  E(UM062X) =  -232.966370432     A.U. after   13 cycles
 SCF Done:  E(UM062X) =  -232.967185637     A.U. after   13 cycles
 SCF Done:  E(UM062X) =  -232.967808796     A.U. after   12 cycles
 SCF Done:  E(UM062X) =  -232.968504603     A.U. after   12 cycles
 SCF Done:  E(UM062X) =  -232.973826511     A.U. after   11 cycles
 SCF Done:  E(UM062X) =  -232.973830134     A.U. after   10 cycles
 SCF Done:  E(UM062X) =  -232.973830147     A.U. after    8 cycles
 SCF Done:  E(UM062X) =  -232.973830152     A.U. after    7 cycles
 SCF Done:  E(UM062X) =  -232.973830152     A.U. after    4 cycles
 SCF Done:  E(UM062X) =  -232.973830152     A.U. after    3 cycles
 SCF Done:  E(UM062X) =  -232.973830152     A.U. after    3 cycles
 SCF Done:  E(UM062X) =  -232.973830152     A.U. after    3 cycles
 SCF Done:  E(UM062X) =  -232.973830152     A.U. after    2 cycles
 Optimization completed.
    -- Stationary point found.
 Normal termination of Gaussian 16 at Tue Apr  9 00:56:15 2019.

 ----------------------------------------------------------------------
 #P Geom=AllCheck Guess=TCheck SCRF=Check Test GenChk UM062X/6-311+G(2d
 f,2p) Freq
 ----------------------------------------------------------------------

 Structure from the checkpoint file:  "/scratch/underkoffler.c/gaussian_scratch/Gau-20488.chk"
 ------------------------------
 Gaussian input prepared by ASE
 ------------------------------
 Charge =  0 Multiplicity = 2

                         Standard orientation:
 ---------------------------------------------------------------------
 Center     Atomic      Atomic             Coordinates (Angstroms)
 Number     Number       Type             X           Y           Z
 ---------------------------------------------------------------------
      1          8           0        1.688581   -0.816443   -0.033098
      2          6           0       -1.284997    0.532328    0.175179
      3          6           0        0.072551    1.025261   -0.362615
      4          6           0       -1.484052   -0.969896    0.012148
      5          6           0        1.263962    0.436756    0.303530
      6          1           0       -1.361128    0.800855    1.230852
      7          1           0       -2.080990    1.070479   -0.344692
      8          1           0        0.120108    2.111088   -0.260562
      9          1           0        0.122604    0.814833   -1.438681
     10          1           0       -0.737332   -1.528499    0.575771
     11          1           0       -2.469042   -1.277843    0.360658
     12          1           0       -1.400892   -1.260853   -1.037895
     13          1           0        1.534698    0.700111    1.315776
     14          1           0        1.358541   -1.045317   -0.905900
 ---------------------------------------------------------------------

 SCF Done:  E(UM062X) =  -232.973830152     A.U. after    1 cycles

 The electronic state is 2-A.
 Alpha  occ. eigenvalues --  -19.64912 -10.57657 -10.54074 -10.53548 -10.52378
 Alpha  occ. eigenvalues --   -1.17991  -0.90016  -0.81364  -0.72996  -0.67769
 Alpha  occ. eigenvalues --   -0.57279  -0.55158  -0.52799  -0.50749  -0.46765
 Alpha  occ. eigenvalues --   -0.45861  -0.43388  -0.41031  -0.40105  -0.39108
 Alpha  occ. eigenvalues --   -0.21844
 Alpha virt. eigenvalues --    0.01423   0.02685   0.03560   0.03996   0.05821
 Alpha virt. eigenvalues --    0.06712   0.07035   0.07249   0.08015   0.10861
 Alpha virt. eigenvalues --    0.10995   0.11497   0.12199   0.12339   0.15043

  Beta  occ. eigenvalues --  -19.64529 -10.56910 -10.54121 -10.53451 -10.52382
  Beta  occ. eigenvalues --   -1.16636  -0.89488  -0.80389  -0.71408  -0.67353
  Beta  occ. eigenvalues --   -0.56374  -0.54383  -0.51201  -0.50252  -0.45758
  Beta  occ. eigenvalues --   -0.43161  -0.42917  -0.40219  -0.39915  -0.38490
  Beta virt. eigenvalues --    0.00500   0.01244   0.02624   0.03438   0.04272
  Beta virt. eigenvalues --    0.05942   0.06778   0.06897   0.07170   0.08290
  Beta virt. eigenvalues --    0.10728   0.10907   0.11401   0.11937   0.12185

 Mulliken charges and spin densities:
               1          2
     1  O   -0.260151   0.080955
     2  C   -0.230771   0.057431
     3  C   -0.338780  -0.023752
     4  C   -0.506023  -0.004389
     5  C   -0.185764   0.926525
     6  H    0.167986  -0.009778
     7  H    0.145831   0.004727
     8  H    0.159336   0.003986
     9  H    0.172265   0.011467
    10  H    0.171045  -0.001753
    11  H    0.145691   0.000008
    12  H    0.141504   0.000934
    13  H    0.167490  -0.043990
    14  H    0.250342  -0.002372
 Sum of Mulliken charges =  -0.00000   1.00000

 Dipole moment (field-independent basis, Debye):
    X=             -1.3883    Y=              0.3879    Z=             -0.9039  Tot=              1.7015
 Quadrupole moment (field-independent basis, Debye-Ang):
   XX=            -37.1715   YY=            -33.3265   ZZ=            -30.7385
   XY=              0.4502   XZ=             -0.9165   YZ=              2.0144

  Exact polarizability:  58.577   0.661  55.355   0.490   1.219  49.609
 Approx polarizability:  61.894  -1.147  62.023   0.849   1.733  61.281

                      1                      2                      3
                      A                      A                      A
 Frequencies --    108.4223               133.6206               242.7144
 Red. masses --      2.0590                 2.5621                 1.4330
 Frc consts  --      0.0143                 0.0270                 0.0497
 IR Inten    --      2.0491                 1.2674                12.2943

                      4                      5                      6
                      A                      A                      A
 Frequencies --    294.7818               333.7992               392.3909
 Red. masses --      1.1454                 2.4506                 1.5414
 Frc consts  --      0.0586                 0.1609                 0.1398
 IR Inten    --      7.7912                 6.2369                61.1934

                      7                      8                      9
                      A                      A                      A
 Frequencies --    487.0584               574.2193               784.8329
 Red. masses --      1.5435                 1.7316                 1.2486
 Frc consts  --      0.2157                 0.3364                 0.4531
 IR Inten    --     22.7012                55.6144                 3.8480

                     10                     11                     12
                      A                      A                      A
 Frequencies --    835.9929               890.5778               967.5740
 Red. masses --      2.5462                 1.5011                 2.0817
 Frc consts  --      1.0485                 0.7015                 1.1482
 IR Inten    --      1.3820                 3.9882                19.6052

                     13                     14                     15
                      A                      A                      A
 Frequencies --   1058.0856              1086.9319              1102.2157
 Red. masses --      1.5208                 2.2815                 1.4031
 Frc consts  --      1.0032                 1.5881                 1.0043
 IR Inten    --      2.8302                11.7658                35.7568

                     16                     17                     18
                      A                      A                      A
 Frequencies --   1209.7053              1238.5864              1283.9895
 Red. masses --      1.5024                 1.7495                 1.2835
 Frc consts  --      1.2954                 1.5813                 1.2467
 IR Inten    --     49.9904                36.0245                 1.0389

                     19                     20                     21
                      A                      A                      A
 Frequencies --   1331.2909              1354.7424              1373.5326
 Red. masses --      1.4623                 1.3171                 1.3543
 Frc consts  --      1.5270                 1.4242                 1.5054
 IR Inten    --      2.6591                11.0713                 0.9604

                     22                     23                     24
                      A                      A                      A
 Frequencies --   1417.4441              1451.3607              1473.7172
 Red. masses --      1.2776                 1.5709                 1.1622
 Frc consts  --      1.5123                 1.9496                 1.4872
 IR Inten    --      3.0888                64.8203                10.0705

                     25                     26                     27
                      A                      A                      A
 Frequencies --   1494.7994              1508.1611              1516.1239
 Red. masses --      1.0850                 1.0424                 1.0650
 Frc consts  --      1.4283                 1.3970                 1.4423
 IR Inten    --      5.2800                 9.1087                 8.9353

                     28                     29                     30
                      A                      A                      A
 Frequencies --   3012.8810              3050.5286              3054.0936
 Red. masses --      1.0689                 1.0473                 1.0543
 Frc consts  --      5.7170                 5.7420                 5.7943
 IR Inten    --     22.5982                11.6650                35.7279

                     31                     32                     33
                      A                      A                      A
 Frequencies --   3088.5830              3093.1295              3121.5105
 Red. masses --      1.0959                 1.0974                 1.0977
 Frc consts  --      6.1594                 6.1860                 6.3017
 IR Inten    --     17.4510                21.7993                33.6568

                     34                     35                     36
                      A                      A                      A
 Frequencies --   3140.1699              3213.6565              3882.0176
 Red. masses --      1.1026                 1.0888                 1.0659
 Frc consts  --      6.4061                 6.6255                 9.4639
 IR Inten    --     19.1497                13.1011                41.5471

 - Thermochemistry -
 -------------------
 Temperature   298.150 Kelvin.  Pressure   1.00000 Atm.
 Atom     1 has atomic number  8 and mass  15.99491

 Molecular mass:    73.06534 amu.
 Principal axes and moments of inertia in atomic units:
                           1         2         3
     Eigenvalues --   233.21548 503.51925 658.32058
           X            0.99937   0.03553  -0.00133
           Y           -0.03551   0.99923   0.01654
           Z            0.00192  -0.01648   0.99986
 This molecule is an asymmetric top.
 Rotational symmetry number  1.
 Rotational temperatures (Kelvin)      0.37139     0.17202     0.13157
 Rotational constants (GHZ):           7.73851     3.58425     2.74143
 Zero-point vibrational energy     326599.9 (Joules/Mol)
                                   78.05925 (Kcal/Mol)
 Warning -- explicit consideration of   8 degrees of freedom as
           vibrations may cause significant error
 Vibrational temperatures:    156.00   192.25   349.21   424.13   480.26
          (Kelvin)            564.56   700.77   826.17  1129.20  1202.81
                             1281.34  1392.12  1522.35  1563.85  1585.84
                             1740.50  1782.05  1847.37  1915.43  1949.17
                             1976.21  2039.39  2088.18  2120.35  2150.68
                             2169.91  2181.36  4334.86  4389.03  4394.16
                             4443.78  4450.32  4491.16  4518.00  4623.73
                             5585.36

 Zero-point correction=                           0.124395 (Hartree/Particle)
 Thermal correction to Energy=                    0.131079
 Thermal correction to Enthalpy=                  0.132023
 Thermal correction to Gibbs Free Energy=         0.094036
 Sum of electronic and zero-point Energies=           -232.849435
 Sum of electronic and thermal Energies=              -232.842751
 Sum of electronic and thermal Enthalpies=            -232.841807
 Sum of electronic and thermal Free Energies=         -232.879794

                     E (Thermal)             CV                S
                      KCal/Mol        Cal/Mol-Kelvin    Cal/Mol-Kelvin
 Total                   82.253             23.226             79.951
 Electronic               0.000              0.000              1.377
 Translational            0.889              2.981             38.783
 Rotational               0.889              2.981             25.850
 Vibrational             80.476             17.264             13.941
 Vibration     1          0.606              1.942              3.297
 Vibration     2          0.613              1.920              2.893
 Vibration     3          0.659              1.775              1.783
 Vibration     4          0.689              1.683              1.446
 Vibration     5          0.715              1.608              1.242
 Vibration     6          0.760              1.486              0.991
 Vibration     7          0.843              1.279              0.691
 Vibration     8          0.931              1.087              0.496

                           ! Non-Optimized Parameters !
 Normal termination of Gaussian 16 at Tue Apr  9 01:01:46 2019.
