 Gaussian 16, Revision A.03,
 Gaussian 16:  EM64L-G16RevA.03 25-Dec-2016

 ----------------------------------------------
 #p m062x/6-311+g(2df,2p) Opt=(CalcFC,ModRedun)
 ----------------------------------------------

 ----------------------------------------
 Gaussian Input Prepared from Scan Object
 ----------------------------------------
 Symbolic Z-matrix:
 Charge =  0 Multiplicity = 2

 SCF Done:  E(UM062X) =  -232.954657827     A.U. after   13 cycles

  Exact polarizability:   0.000   0.000   0.000   0.000   0.000   0.000
 Approx polarizability:  61.517  -0.173  60.613  -0.403   0.475  59.436

 Optimization completed.
    -- Stationary point found.
 SCF Done:  E(UM062X) =  -232.953491850     A.U. after   10 cycles
 SCF Done:  E(UM062X) =  -232.954458615     A.U. after   11 cycles
 SCF Done:  E(UM062X) =  -232.954460563     A.U. after    9 cycles
 SCF Done:  E(UM062X) =  -232.954460953     A.U. after    9 cycles
 SCF Done:  E(UM062X) =  -232.954461002     A.U. after    7 cycles
 Optimization completed.
 SCF Done:  E(UM062X) =  -232.952910788     A.U. after   10 cycles
 SCF Done:  E(UM062X) =  -232.953907396     A.U. after   10 cycles
 SCF Done:  E(UM062X) =  -232.953910672     A.U. after    9 cycles
 SCF Done:  E(UM062X) =  -232.952062729     A.U. after   10 cycles
 SCF Done:  E(UM062X) =  -232.953938217     A.U. after   10 cycles
 SCF Done:  E(UM062X) =  -232.953941211     A.U. after    8 cycles
 SCF Done:  E(UM062X) =  -232.953941247     A.U. after    7 cycles
 SCF Done:  E(UM062X) =  -232.953505933     A.U. after   10 cycles
 SCF Done:  E(UM062X) =  -232.954470633     A.U. after   10 cycles
 SCF Done:  E(UM062X) =  -232.954472476     A.U. after    9 cycles
 SCF Done:  E(UM062X) =  -232.954472486     A.U. after    6 cycles
    -- Stationary point found.
 SCF Done:  E(UM062X) =  -232.953695681     A.U. after   10 cycles
 SCF Done:  E(UM062X) =  -232.954654758     A.U. after   10 cycles
 SCF Done:  E(UM062X) =  -232.954657815     A.U. after    9 cycles
 Optimization completed.
    -- Stationary point found.

                         Standard orientation:
 ---------------------------------------------------------------------
 Center     Atomic      Atomic             Coordinates (Angstroms)
 Number     Number       Type             X           Y           Z
 ---------------------------------------------------------------------
      1          8           0        0.658278   -0.603670   -0.315799
      2          6           0       -0.428614    0.042846    0.320179
      3          6           0       -1.673537   -0.764372   -0.033231
      4          6           0        1.913796   -0.113176    0.082594
      5          6           0       -0.551795    1.464106   -0.110741
      6          1           0       -0.277720    0.005219    1.408512
      7          1           0       -2.553727   -0.338611    0.445921
      8          1           0       -1.820662   -0.751434   -1.112681
      9          1           0       -1.551500   -1.796598    0.292387
     10          1           0        2.050281   -0.217549    1.164840
     11          1           0        2.669399   -0.703838   -0.429408
     12          1           0        2.040362    0.940529   -0.183174
     13          1           0       -0.397844    1.706587   -1.152936
     14          1           0       -0.983910    2.208631    0.540136
 ---------------------------------------------------------------------

 The electronic state is 2-A.
 Alpha  occ. eigenvalues --  -19.62175 -10.59114 -10.57152 -10.54415 -10.52443
 Alpha  occ. eigenvalues --   -1.16013  -0.88641  -0.78320  -0.76536  -0.66330
 Alpha  occ. eigenvalues --   -0.57858  -0.54384  -0.53342  -0.49521  -0.47818
 Alpha  occ. eigenvalues --   -0.45384  -0.43470  -0.41971  -0.38756  -0.33522
 Alpha  occ. eigenvalues --   -0.27142
 Alpha virt. eigenvalues --    0.02100   0.03269   0.03742   0.04112   0.05571
 Alpha virt. eigenvalues --    0.06798   0.06982   0.07683   0.07958   0.10004
 Alpha virt. eigenvalues --    0.10649   0.11844   0.12537   0.13499   0.14719

  Beta  occ. eigenvalues --  -19.62150 -10.59179 -10.57141 -10.53733 -10.52359
  Beta  occ. eigenvalues --   -1.15892  -0.87657  -0.76579  -0.75433  -0.65267
  Beta  occ. eigenvalues --   -0.57439  -0.53879  -0.52888  -0.49075  -0.46956
  Beta  occ. eigenvalues --   -0.45013  -0.42785  -0.41640  -0.38387  -0.33246
  Beta virt. eigenvalues --   -0.03073   0.01434   0.03324   0.03471   0.04109
  Beta virt. eigenvalues --    0.05637   0.06683   0.06911   0.07449   0.07820
  Beta virt. eigenvalues --    0.09999   0.10469   0.11579   0.12284   0.13203

 Mulliken charges and spin densities:
               1          2
     1  O   -0.134247   0.000381
     2  C   -0.176325  -0.001695
     3  C   -0.423691   0.014618
     4  C   -0.259692   0.030827
     5  C   -0.375049   1.067579
     6  H    0.165440   0.003262
     7  H    0.142783  -0.006878
     8  H    0.163101  -0.004263
     9  H    0.147654   0.011638
    10  H    0.113845  -0.002573
    11  H    0.132445  -0.000326
    12  H    0.125318  -0.013820
    13  H    0.199369  -0.055963
    14  H    0.179049  -0.042788
 Sum of Mulliken charges =  -0.00000   1.00000

 Dipole moment (field-independent basis, Debye):
    X=             -0.0664    Y=              0.8129    Z=              0.8375  Tot=              1.1690
 Quadrupole moment (field-independent basis, Debye-Ang):
   XX=            -30.7152   YY=            -33.8578   ZZ=            -32.6543
   XY=              0.0131   XZ=             -0.1218   YZ=             -0.7252

 Normal termination of Gaussian 16 at Mon Mar 11 02:29:30 2019.
