 Gaussian 16, Revision A.03,
 Gaussian 16:  EM64L-G16RevA.03 25-Dec-2016

 ----------------------------------------------------------------------
 #p m062x/6-311+g(2df,2p) opt=(calcfc,verytight,gdiis,maxcycles=900) fr
 eq iop(7/33=1,2/16=3)
 ----------------------------------------------------------------------

 ------------------------------
 Gaussian input prepared by ASE
 ------------------------------
 Symbolic Z-matrix:
 Charge =  0 Multiplicity = 2

 SCF Done:  E(UM062X) =  -232.935285311     A.U. after   14 cycles
 SCF Done:  E(UM062X) =  -232.950069486     A.U. after   12 cycles
 SCF Done:  E(UM062X) =  -232.947037203     A.U. after   14 cycles
 SCF Done:  E(UM062X) =  -232.951266158     A.U. after   12 cycles
 SCF Done:  E(UM062X) =  -232.952653819     A.U. after   12 cycles
 SCF Done:  E(UM062X) =  -232.952729073     A.U. after   10 cycles
 SCF Done:  E(UM062X) =  -232.952779049     A.U. after   10 cycles
 SCF Done:  E(UM062X) =  -232.952864492     A.U. after   11 cycles
 SCF Done:  E(UM062X) =  -232.952938091     A.U. after   11 cycles
 SCF Done:  E(UM062X) =  -232.952970627     A.U. after   12 cycles
 SCF Done:  E(UM062X) =  -232.954657827     A.U. after    2 cycles
 SCF Done:  E(UM062X) =  -232.954657827     A.U. after    2 cycles
 SCF Done:  E(UM062X) =  -232.954657827     A.U. after    2 cycles
 SCF Done:  E(UM062X) =  -232.954657827     A.U. after    2 cycles
 SCF Done:  E(UM062X) =  -232.954657827     A.U. after    5 cycles
 SCF Done:  E(UM062X) =  -232.954657827     A.U. after    4 cycles
 SCF Done:  E(UM062X) =  -232.954657827     A.U. after    3 cycles
 SCF Done:  E(UM062X) =  -232.954657827     A.U. after    3 cycles
 SCF Done:  E(UM062X) =  -232.954657827     A.U. after    2 cycles
 Optimization completed.
    -- Stationary point found.
 Normal termination of Gaussian 16 at Sun Mar 10 20:51:52 2019.

 ----------------------------------------------------------------------
 #P Geom=AllCheck Guess=TCheck SCRF=Check Test GenChk UM062X/6-311+G(2d
 f,2p) Freq
 ----------------------------------------------------------------------

 Structure from the checkpoint file:  "/scratch/underkoffler.c/gaussian_scratch/Gau-43640.chk"
 ------------------------------
 Gaussian input prepared by ASE
 ------------------------------
 Charge =  0 Multiplicity = 2

                         Standard orientation:
 ---------------------------------------------------------------------
 Center     Atomic      Atomic             Coordinates (Angstroms)
 Number     Number       Type             X           Y           Z
 ---------------------------------------------------------------------
      1          8           0        0.658214   -0.603708   -0.316013
      2          6           0       -0.428566    0.042837    0.320125
      3          6           0       -1.673606   -0.764260   -0.033123
      4          6           0        1.913692   -0.113270    0.082694
      5          6           0       -0.551617    1.464119   -0.110767
      6          1           0       -0.277487    0.005168    1.408429
      7          1           0       -2.553687   -0.338440    0.446175
      8          1           0       -1.820890   -0.751271   -1.112550
      9          1           0       -1.551611   -1.796511    0.292433
     10          1           0        2.050006   -0.217897    1.164944
     11          1           0        2.669392   -0.703779   -0.429344
     12          1           0        2.040279    0.940492   -0.182863
     13          1           0       -0.397975    1.706558   -1.153018
     14          1           0       -0.983155    2.208788    0.540326
 ---------------------------------------------------------------------

 SCF Done:  E(UM062X) =  -232.954657827     A.U. after    1 cycles

 The electronic state is 2-A.
 Alpha  occ. eigenvalues --  -19.62176 -10.59114 -10.57153 -10.54414 -10.52443
 Alpha  occ. eigenvalues --   -1.16013  -0.88640  -0.78320  -0.76536  -0.66330
 Alpha  occ. eigenvalues --   -0.57858  -0.54384  -0.53342  -0.49522  -0.47818
 Alpha  occ. eigenvalues --   -0.45384  -0.43469  -0.41970  -0.38757  -0.33523
 Alpha  occ. eigenvalues --   -0.27142
 Alpha virt. eigenvalues --    0.02099   0.03269   0.03742   0.04112   0.05571
 Alpha virt. eigenvalues --    0.06798   0.06983   0.07682   0.07958   0.10004
 Alpha virt. eigenvalues --    0.10649   0.11844   0.12537   0.13499   0.14720

  Beta  occ. eigenvalues --  -19.62150 -10.59179 -10.57141 -10.53733 -10.52359
  Beta  occ. eigenvalues --   -1.15892  -0.87656  -0.76579  -0.75433  -0.65267
  Beta  occ. eigenvalues --   -0.57438  -0.53879  -0.52888  -0.49075  -0.46956
  Beta  occ. eigenvalues --   -0.45013  -0.42785  -0.41640  -0.38389  -0.33247
  Beta virt. eigenvalues --   -0.03072   0.01434   0.03324   0.03472   0.04109
  Beta virt. eigenvalues --    0.05637   0.06683   0.06911   0.07449   0.07820
  Beta virt. eigenvalues --    0.09999   0.10469   0.11579   0.12284   0.13203

 Mulliken charges and spin densities:
               1          2
     1  O   -0.134263   0.000389
     2  C   -0.176317  -0.001692
     3  C   -0.423708   0.014610
     4  C   -0.259670   0.030835
     5  C   -0.375057   1.067609
     6  H    0.165438   0.003252
     7  H    0.142783  -0.006880
     8  H    0.163098  -0.004261
     9  H    0.147651   0.011637
    10  H    0.113847  -0.002573
    11  H    0.132449  -0.000328
    12  H    0.125320  -0.013829
    13  H    0.199380  -0.055972
    14  H    0.179050  -0.042798
 Sum of Mulliken charges =  -0.00000   1.00000

 Dipole moment (field-independent basis, Debye):
    X=             -0.0662    Y=              0.8130    Z=              0.8379  Tot=              1.1694
 Quadrupole moment (field-independent basis, Debye-Ang):
   XX=            -30.7160   YY=            -33.8574   ZZ=            -32.6543
   XY=              0.0137   XZ=             -0.1209   YZ=             -0.7253

  Exact polarizability:  60.557   0.554  54.532   0.133  -0.269  48.625
 Approx polarizability:  61.517  -0.173  60.613  -0.403   0.475  59.436

                      1                      2                      3
                      A                      A                      A
 Frequencies --    105.8848               126.0827               211.8039
 Red. masses --      1.2708                 1.3214                 1.3368
 Frc consts  --      0.0084                 0.0124                 0.0353
 IR Inten    --      2.6363                 2.0671                 3.3235

                      4                      5                      6
                      A                      A                      A
 Frequencies --    244.6215               292.2007               335.6270
 Red. masses --      1.1002                 2.3076                 1.7518
 Frc consts  --      0.0388                 0.1161                 0.1163
 IR Inten    --      0.2227                 2.5170                 7.2675

                      7                      8                      9
                      A                      A                      A
 Frequencies --    468.2673               475.0309               552.1404
 Red. masses --      2.2563                 2.1102                 2.3807
 Frc consts  --      0.2915                 0.2806                 0.4276
 IR Inten    --      8.9716                 8.8290                26.0236

                     10                     11                     12
                      A                      A                      A
 Frequencies --    840.3244               921.7601               952.3569
 Red. masses --      2.4609                 1.2672                 1.7684
 Frc consts  --      1.0238                 0.6344                 0.9450
 IR Inten    --      9.1205                 2.3616                 4.3422

                     13                     14                     15
                      A                      A                      A
 Frequencies --   1072.9455              1143.5418              1157.2858
 Red. masses --      3.1487                 1.6638                 1.9782
 Frc consts  --      2.1357                 1.2819                 1.5610
 IR Inten    --      7.7167                 4.8272                11.4403

                     16                     17                     18
                      A                      A                      A
 Frequencies --   1187.3134              1190.4696              1250.1628
 Red. masses --      1.4318                 3.7663                 1.9123
 Frc consts  --      1.1892                 3.1449                 1.7610
 IR Inten    --     19.6821               124.9103                44.0430

                     19                     20                     21
                      A                      A                      A
 Frequencies --   1343.6594              1381.0968              1399.4672
 Red. masses --      1.3376                 1.2187                 1.2616
 Frc consts  --      1.4228                 1.3696                 1.4557
 IR Inten    --      4.3060                17.1745                 8.6746

                     22                     23                     24
                      A                      A                      A
 Frequencies --   1452.5436              1483.2110              1488.2642
 Red. masses --      1.2220                 1.1426                 1.0566
 Frc consts  --      1.5190                 1.4810                 1.3788
 IR Inten    --      9.6228                 1.2293                 3.4987

                     25                     26                     27
                      A                      A                      A
 Frequencies --   1498.4667              1501.4147              1517.4486
 Red. masses --      1.0446                 1.0763                 1.0505
 Frc consts  --      1.3819                 1.4295                 1.4253
 IR Inten    --      7.7579                 2.6484                 8.0121

                     28                     29                     30
                      A                      A                      A
 Frequencies --   2989.1904              3017.8410              3068.3461
 Red. masses --      1.0820                 1.0384                 1.0335
 Frc consts  --      5.6964                 5.5719                 5.7327
 IR Inten    --     35.2717                52.8698                13.4871

                     31                     32                     33
                      A                      A                      A
 Frequencies --   3070.8802              3147.5419              3150.3073
 Red. masses --      1.1013                 1.1036                 1.1029
 Frc consts  --      6.1191                 6.4416                 6.4490
 IR Inten    --     36.5267                15.6957                10.0376

                     34                     35                     36
                      A                      A                      A
 Frequencies --   3150.8137              3167.2979              3278.1000
 Red. masses --      1.0979                 1.0511                 1.1193
 Frc consts  --      6.4221                 6.2124                 7.0865
 IR Inten    --     25.6414                 4.2319                 4.2528

 - Thermochemistry -
 -------------------
 Temperature   298.150 Kelvin.  Pressure   1.00000 Atm.
 Atom     1 has atomic number  8 and mass  15.99491

 Molecular mass:    73.06534 amu.
 Principal axes and moments of inertia in atomic units:
                           1         2         3
     Eigenvalues --   220.37653 461.89071 612.31837
           X            0.99964   0.02584   0.00721
           Y           -0.02572   0.99953  -0.01656
           Z           -0.00764   0.01637   0.99984
 This molecule is an asymmetric top.
 Rotational symmetry number  1.
 Rotational temperatures (Kelvin)      0.39303     0.18752     0.14145
 Rotational constants (GHZ):           8.18935     3.90729     2.94739
 Zero-point vibrational energy     320800.8 (Joules/Mol)
                                   76.67324 (Kcal/Mol)
 Warning -- explicit consideration of   9 degrees of freedom as
           vibrations may cause significant error
 Vibrational temperatures:    152.34   181.40   304.74   351.96   420.41
          (Kelvin)            482.89   673.73   683.46   794.41  1209.04
                             1326.21  1370.23  1543.73  1645.30  1665.08
                             1708.28  1712.82  1798.71  1933.23  1987.09
                             2013.52  2089.89  2134.01  2141.28  2155.96
                             2160.20  2183.27  4300.78  4342.00  4414.67
                             4418.31  4528.61  4532.59  4533.32  4557.04
                             4716.45

 Zero-point correction=                           0.122187 (Hartree/Particle)
 Thermal correction to Energy=                    0.129287
 Thermal correction to Enthalpy=                  0.130231
 Thermal correction to Gibbs Free Energy=         0.091515
 Sum of electronic and zero-point Energies=           -232.832471
 Sum of electronic and thermal Energies=              -232.825371
 Sum of electronic and thermal Enthalpies=            -232.824426
 Sum of electronic and thermal Free Energies=         -232.863142

                     E (Thermal)             CV                S
                      KCal/Mol        Cal/Mol-Kelvin    Cal/Mol-Kelvin
 Total                   81.129             24.167             81.484
 Electronic               0.000              0.000              1.377
 Translational            0.889              2.981             38.783
 Rotational               0.889              2.981             25.636
 Vibrational             79.351             18.206             15.688
 Vibration     1          0.605              1.945              3.343
 Vibration     2          0.611              1.927              3.005
 Vibration     3          0.643              1.823              2.028
 Vibration     4          0.660              1.772              1.769
 Vibration     5          0.688              1.688              1.461
 Vibration     6          0.717              1.604              1.233
 Vibration     7          0.825              1.320              0.742
 Vibration     8          0.832              1.305              0.724
 Vibration     9          0.907              1.135              0.540

                           ! Non-Optimized Parameters !
 Normal termination of Gaussian 16 at Sun Mar 10 20:57:10 2019.
