 Gaussian 16, Revision A.03,
 Gaussian 16:  EM64L-G16RevA.03 25-Dec-2016

 ----------------------------------------------
 #p m062x/6-311+g(2df,2p) Opt=(CalcFC,ModRedun)
 ----------------------------------------------

 ----------------------------------------
 Gaussian Input Prepared from Scan Object
 ----------------------------------------
 Symbolic Z-matrix:
 Charge =  0 Multiplicity = 1

 SCF Done:  E(RM062X) =  -233.625211463     A.U. after   11 cycles

  Exact polarizability:   0.000   0.000   0.000   0.000   0.000   0.000
 Approx polarizability:  63.799  -0.230  60.710  -0.286   0.810  61.225

 Optimization completed.
    -- Stationary point found.
 SCF Done:  E(RM062X) =  -233.623994624     A.U. after   10 cycles
 SCF Done:  E(RM062X) =  -233.625038721     A.U. after    9 cycles
 SCF Done:  E(RM062X) =  -233.625052985     A.U. after    8 cycles
 SCF Done:  E(RM062X) =  -233.625055312     A.U. after    8 cycles
 Optimization completed.
 SCF Done:  E(RM062X) =  -233.623637352     A.U. after   10 cycles
 SCF Done:  E(RM062X) =  -233.624702515     A.U. after   10 cycles
 SCF Done:  E(RM062X) =  -233.624714254     A.U. after    8 cycles
 SCF Done:  E(RM062X) =  -233.624714443     A.U. after    7 cycles
 SCF Done:  E(RM062X) =  -233.624714513     A.U. after    6 cycles
 SCF Done:  E(RM062X) =  -233.624412474     A.U. after    7 cycles
 SCF Done:  E(RM062X) =  -233.623948891     A.U. after    9 cycles
 SCF Done:  E(RM062X) =  -233.625000406     A.U. after    9 cycles
 SCF Done:  E(RM062X) =  -233.625006093     A.U. after    8 cycles
 SCF Done:  E(RM062X) =  -233.625006244     A.U. after    6 cycles
 SCF Done:  E(RM062X) =  -233.625006247     A.U. after    6 cycles
    -- Stationary point found.
 SCF Done:  E(RM062X) =  -233.624192250     A.U. after    9 cycles
 SCF Done:  E(RM062X) =  -233.625208197     A.U. after    9 cycles
 SCF Done:  E(RM062X) =  -233.625211418     A.U. after    8 cycles
 SCF Done:  E(RM062X) =  -233.625211470     A.U. after    6 cycles
 Optimization completed.
    -- Stationary point found.

                         Standard orientation:
 ---------------------------------------------------------------------
 Center     Atomic      Atomic             Coordinates (Angstroms)
 Number     Number       Type             X           Y           Z
 ---------------------------------------------------------------------
      1          8           0        0.679107   -0.633130   -0.308604
      2          6           0       -0.421892   -0.009682    0.326601
      3          6           0       -0.581837    1.442925   -0.103067
      4          6           0       -1.642778   -0.835652   -0.026893
      5          6           0        1.933115   -0.126392    0.065502
      6          1           0       -0.259853   -0.045582    1.413417
      7          1           0       -0.675371    1.496332   -1.188665
      8          1           0        0.264214    2.055979    0.204160
      9          1           0       -1.479927    1.868809    0.343784
     10          1           0       -2.528843   -0.444368    0.471618
     11          1           0       -1.498145   -1.872314    0.271556
     12          1           0       -1.807462   -0.806769   -1.104388
     13          1           0        2.114009    0.871748   -0.342990
     14          1           0        2.032199   -0.081733    1.156232
     15          1           0        2.686672   -0.804264   -0.328743
 ---------------------------------------------------------------------

 The electronic state is 1-A.
 Alpha  occ. eigenvalues --  -19.61883 -10.58475 -10.57200 -10.52260 -10.51896
 Alpha  occ. eigenvalues --   -1.15675  -0.88286  -0.78896  -0.76366  -0.66215
 Alpha  occ. eigenvalues --   -0.57209  -0.53943  -0.53431  -0.49720  -0.46117
 Alpha  occ. eigenvalues --   -0.45468  -0.44151  -0.41440  -0.40885  -0.37592
 Alpha  occ. eigenvalues --   -0.32738
 Alpha virt. eigenvalues --    0.01674   0.03002   0.03482   0.03958   0.05589
 Alpha virt. eigenvalues --    0.06606   0.06979   0.07605   0.07801   0.09522
 Alpha virt. eigenvalues --    0.10167   0.11183   0.12179   0.13181   0.13689

 Mulliken charges:
               1
     1  O   -0.126593
     2  C   -0.229530
     3  C   -0.388521
     4  C   -0.421242
     5  C   -0.274212
     6  H    0.161829
     7  H    0.170879
     8  H    0.138260
     9  H    0.142961
    10  H    0.139951
    11  H    0.150351
    12  H    0.158400
    13  H    0.125556
    14  H    0.115854
    15  H    0.136057
 Sum of Mulliken charges =  -0.00000

 Dipole moment (field-independent basis, Debye):
    X=              0.0422    Y=              0.9844    Z=              0.8427  Tot=              1.2965
 Quadrupole moment (field-independent basis, Debye-Ang):
   XX=            -30.8131   YY=            -34.5553   ZZ=            -33.7819
   XY=              0.3860   XZ=              0.2434   YZ=             -0.6258

 Normal termination of Gaussian 16 at Mon Mar 11 01:06:55 2019.
