 Gaussian 16, Revision A.03,
 Gaussian 16:  EM64L-G16RevA.03 25-Dec-2016

 ----------------------------------------------------------------------
 #p m062x/6-311+g(2df,2p) opt=(calcfc,verytight,gdiis,maxcycles=900) fr
 eq iop(7/33=1,2/16=3)
 ----------------------------------------------------------------------

 ------------------------------
 Gaussian input prepared by ASE
 ------------------------------
 Symbolic Z-matrix:
 Charge =  0 Multiplicity = 2

 SCF Done:  E(UM062X) =  -232.952564852     A.U. after   14 cycles
 SCF Done:  E(UM062X) =  -232.963086513     A.U. after   12 cycles
 SCF Done:  E(UM062X) =  -232.963112130     A.U. after   13 cycles
 SCF Done:  E(UM062X) =  -232.964443199     A.U. after   12 cycles
 SCF Done:  E(UM062X) =  -232.964596665     A.U. after   12 cycles
 SCF Done:  E(UM062X) =  -232.964825947     A.U. after   11 cycles
 SCF Done:  E(UM062X) =  -232.965009813     A.U. after   12 cycles
 SCF Done:  E(UM062X) =  -232.965081773     A.U. after   10 cycles
 SCF Done:  E(UM062X) =  -232.965120579     A.U. after   11 cycles
 SCF Done:  E(UM062X) =  -232.965129437     A.U. after   10 cycles
 SCF Done:  E(UM062X) =  -232.965304558     A.U. after   10 cycles
 SCF Done:  E(UM062X) =  -232.965304546     A.U. after    9 cycles
 SCF Done:  E(UM062X) =  -232.965304636     A.U. after    8 cycles
 SCF Done:  E(UM062X) =  -232.965304598     A.U. after    8 cycles
 SCF Done:  E(UM062X) =  -232.965304598     A.U. after    3 cycles
 SCF Done:  E(UM062X) =  -232.965304598     A.U. after    3 cycles
 SCF Done:  E(UM062X) =  -232.965304597     A.U. after    3 cycles
 SCF Done:  E(UM062X) =  -232.965304598     A.U. after    4 cycles
 SCF Done:  E(UM062X) =  -232.965304598     A.U. after    3 cycles
 Optimization completed.
    -- Stationary point found.
 Normal termination of Gaussian 16 at Sun Mar 10 19:07:56 2019.

 ----------------------------------------------------------------------
 #P Geom=AllCheck Guess=TCheck SCRF=Check Test GenChk UM062X/6-311+G(2d
 f,2p) Freq
 ----------------------------------------------------------------------

 Structure from the checkpoint file:  "/scratch/underkoffler.c/gaussian_scratch/Gau-33111.chk"
 ------------------------------
 Gaussian input prepared by ASE
 ------------------------------
 Charge =  0 Multiplicity = 2

                         Standard orientation:
 ---------------------------------------------------------------------
 Center     Atomic      Atomic             Coordinates (Angstroms)
 Number     Number       Type             X           Y           Z
 ---------------------------------------------------------------------
      1          8           0        1.763540   -0.616434   -0.484321
      2          6           0       -1.193456    0.504250   -0.437509
      3          6           0        1.167804    0.133186    0.580076
      4          6           0       -1.694152   -0.758937    0.263833
      5          6           0        0.088018    1.041844    0.108943
      6          1           0       -1.959523    1.280341   -0.384075
      7          1           0       -1.079053    0.293818   -1.510799
      8          1           0       -0.994002   -1.589217    0.157299
      9          1           0       -2.647246   -1.079284   -0.153295
     10          1           0       -1.831673   -0.582026    1.330631
     11          1           0        0.791918   -0.554997    1.344931
     12          1           0        1.983380    0.701532    1.021113
     13          1           0        0.339321    2.071588   -0.106709
     14          1           0        1.079278   -1.132352   -0.916579
 ---------------------------------------------------------------------

 SCF Done:  E(UM062X) =  -232.965304598     A.U. after    1 cycles

 The electronic state is 2-A.
 Alpha  occ. eigenvalues --  -19.62034 -10.58090 -10.54665 -10.54382 -10.53412
 Alpha  occ. eigenvalues --   -1.14265  -0.90458  -0.81868  -0.74382  -0.65192
 Alpha  occ. eigenvalues --   -0.58794  -0.54265  -0.53288  -0.49931  -0.48673
 Alpha  occ. eigenvalues --   -0.44395  -0.42970  -0.41654  -0.39859  -0.35445
 Alpha  occ. eigenvalues --   -0.25968
 Alpha virt. eigenvalues --    0.01106   0.02792   0.03084   0.03793   0.05802
 Alpha virt. eigenvalues --    0.06484   0.07030   0.07786   0.08575   0.10623
 Alpha virt. eigenvalues --    0.10898   0.12258   0.12987   0.13859   0.14744

  Beta  occ. eigenvalues --  -19.61887 -10.58146 -10.54444 -10.53985 -10.53394
  Beta  occ. eigenvalues --   -1.13713  -0.89144  -0.80779  -0.73810  -0.63637
  Beta  occ. eigenvalues --   -0.58094  -0.53146  -0.52503  -0.49385  -0.48221
  Beta  occ. eigenvalues --   -0.43697  -0.42365  -0.41213  -0.39349  -0.34875
  Beta virt. eigenvalues --   -0.03196   0.00851   0.02732   0.02916   0.03942
  Beta virt. eigenvalues --    0.05860   0.06222   0.06800   0.07608   0.08741
  Beta virt. eigenvalues --    0.10527   0.10744   0.11912   0.12518   0.13079

 Mulliken charges and spin densities:
               1          2
     1  O   -0.329005   0.035054
     2  C   -0.329635  -0.038020
     3  C   -0.258401  -0.015213
     4  C   -0.446623   0.018192
     5  C   -0.132470   0.977536
     6  H    0.152712   0.015464
     7  H    0.179233   0.043631
     8  H    0.132619  -0.001914
     9  H    0.143068  -0.001328
    10  H    0.164186  -0.003232
    11  H    0.150021   0.012428
    12  H    0.145549   0.002817
    13  H    0.184758  -0.045713
    14  H    0.243988   0.000298
 Sum of Mulliken charges =   0.00000   1.00000

 Dipole moment (field-independent basis, Debye):
    X=             -1.9746    Y=              0.0532    Z=              0.1797  Tot=              1.9835
 Quadrupole moment (field-independent basis, Debye-Ang):
   XX=            -37.1409   YY=            -31.7787   ZZ=            -32.7211
   XY=              1.6969   XZ=              2.3244   YZ=              0.6164

  Exact polarizability:  58.404   0.805  53.324   1.615   0.271  49.811
 Approx polarizability:  61.859   0.013  60.823   0.944   1.344  59.888

                      1                      2                      3
                      A                      A                      A
 Frequencies --     61.7813                86.9513               204.7539
 Red. masses --      2.2218                 2.1397                 1.1746
 Frc consts  --      0.0050                 0.0095                 0.0290
 IR Inten    --      5.7446                 1.7245                67.3289

                      4                      5                      6
                      A                      A                      A
 Frequencies --    255.5403               285.3859               325.0650
 Red. masses --      1.4188                 1.3528                 1.6206
 Frc consts  --      0.0546                 0.0649                 0.1009
 IR Inten    --     11.2135                21.6946                 3.2050

                      7                      8                      9
                      A                      A                      A
 Frequencies --    523.6153               548.1909               773.7705
 Red. masses --      2.1072                 2.6161                 1.2250
 Frc consts  --      0.3404                 0.4632                 0.4321
 IR Inten    --      3.2419                23.4132                 1.7412

                     10                     11                     12
                      A                      A                      A
 Frequencies --    835.5281               961.0764               995.1236
 Red. masses --      2.5531                 1.8233                 1.5434
 Frc consts  --      1.0501                 0.9923                 0.9005
 IR Inten    --      5.1269                17.6326                 2.0385

                     13                     14                     15
                      A                      A                      A
 Frequencies --   1032.3577              1059.4486              1095.2800
 Red. masses --      4.8787                 1.5269                 1.5806
 Frc consts  --      3.0635                 1.0098                 1.1172
 IR Inten    --     94.8084                 0.4422                18.3852

                     16                     17                     18
                      A                      A                      A
 Frequencies --   1159.6936              1218.3296              1275.6542
 Red. masses --      1.6923                 1.3579                 1.1939
 Frc consts  --      1.3409                 1.1875                 1.1446
 IR Inten    --      9.0171                15.9849                 0.3398

                     19                     20                     21
                      A                      A                      A
 Frequencies --   1341.5448              1367.5860              1391.9216
 Red. masses --      1.2014                 1.5722                 1.4078
 Frc consts  --      1.2740                 1.7325                 1.6071
 IR Inten    --      4.6351                 9.4744                 7.5738

                     22                     23                     24
                      A                      A                      A
 Frequencies --   1411.3640              1428.3950              1481.3027
 Red. masses --      1.2562                 1.4289                 1.0705
 Frc consts  --      1.4743                 1.7177                 1.3839
 IR Inten    --     16.0630                12.2381                 4.3940

                     25                     26                     27
                      A                      A                      A
 Frequencies --   1501.9652              1507.8987              1519.7738
 Red. masses --      1.0651                 1.0502                 1.0864
 Frc consts  --      1.4157                 1.4069                 1.4784
 IR Inten    --     10.1182                 9.0516                 1.1342

                     28                     29                     30
                      A                      A                      A
 Frequencies --   2980.1596              3030.8349              3061.9284
 Red. masses --      1.0732                 1.0698                 1.0386
 Frc consts  --      5.6159                 5.7900                 5.7369
 IR Inten    --     20.9573                33.2725                17.9620

                     31                     32                     33
                      A                      A                      A
 Frequencies --   3075.7373              3124.7450              3132.6910
 Red. masses --      1.0841                 1.1008                 1.0924
 Frc consts  --      6.0423                 6.3325                 6.3166
 IR Inten    --     13.6791                29.3403                19.2731

                     34                     35                     36
                      A                      A                      A
 Frequencies --   3143.3005              3194.4007              3891.1386
 Red. masses --      1.1020                 1.0887                 1.0665
 Frc consts  --      6.4152                 6.5456                 9.5142
 IR Inten    --     18.6307                15.7885                25.7481

 - Thermochemistry -
 -------------------
 Temperature   298.150 Kelvin.  Pressure   1.00000 Atm.
 Atom     1 has atomic number  8 and mass  15.99491

 Molecular mass:    73.06534 amu.
 Principal axes and moments of inertia in atomic units:
                           1         2         3
     Eigenvalues --   215.79538 567.75195 647.91516
           X            0.99933   0.03253   0.01703
           Y           -0.03178   0.99860  -0.04224
           Z           -0.01838   0.04167   0.99896
 This molecule is an asymmetric top.
 Rotational symmetry number  1.
 Rotational temperatures (Kelvin)      0.40137     0.15256     0.13368
 Rotational constants (GHZ):           8.36321     3.17875     2.78546
 Zero-point vibrational energy     324691.8 (Joules/Mol)
                                   77.60321 (Kcal/Mol)
 Warning -- explicit consideration of   8 degrees of freedom as
           vibrations may cause significant error
 Vibrational temperatures:     88.89   125.10   294.60   367.67   410.61
          (Kelvin)            467.70   753.37   788.72  1113.28  1202.14
                             1382.77  1431.76  1485.33  1524.31  1575.86
                             1668.54  1752.90  1835.38  1930.18  1967.65
                             2002.66  2030.64  2055.14  2131.26  2160.99
                             2169.53  2186.62  4287.78  4360.70  4405.43
                             4425.30  4495.81  4507.24  4522.51  4596.03
                             5598.48

 Zero-point correction=                           0.123669 (Hartree/Particle)
 Thermal correction to Energy=                    0.130759
 Thermal correction to Enthalpy=                  0.131703
 Thermal correction to Gibbs Free Energy=         0.092280
 Sum of electronic and zero-point Energies=           -232.841636
 Sum of electronic and thermal Energies=              -232.834546
 Sum of electronic and thermal Enthalpies=            -232.833601
 Sum of electronic and thermal Free Energies=         -232.873025

                     E (Thermal)             CV                S
                      KCal/Mol        Cal/Mol-Kelvin    Cal/Mol-Kelvin
 Total                   82.053             23.622             82.974
 Electronic               0.000              0.000              1.377
 Translational            0.889              2.981             38.783
 Rotational               0.889              2.981             25.876
 Vibrational             80.275             17.660             16.937
 Vibration     1          0.597              1.973              4.399
 Vibration     2          0.601              1.958              3.728
 Vibration     3          0.640              1.833              2.090
 Vibration     4          0.666              1.753              1.692
 Vibration     5          0.683              1.701              1.501
 Vibration     6          0.709              1.625              1.284
 Vibration     7          0.879              1.198              0.602
 Vibration     8          0.903              1.144              0.548

                           ! Non-Optimized Parameters !
 Normal termination of Gaussian 16 at Sun Mar 10 19:13:41 2019.
