 Gaussian 16, Revision A.03,
 Gaussian 16:  EM64L-G16RevA.03 25-Dec-2016

 ----------------------------------------------------------------------
 #p m062x/6-311+g(2df,2p) opt=(calcfc,verytight,gdiis,maxcycles=900) fr
 eq iop(7/33=1,2/16=3)
 ----------------------------------------------------------------------

 ------------------------------
 Gaussian input prepared by ASE
 ------------------------------
 Symbolic Z-matrix:
 Charge =  0 Multiplicity = 1

 SCF Done:  E(RM062X) =  -194.315562317     A.U. after   10 cycles
 SCF Done:  E(RM062X) =  -194.315562323     A.U. after    4 cycles
 Optimization completed.
    -- Stationary point found.
 Normal termination of Gaussian 16 at Mon Mar 11 15:43:27 2019.

 ----------------------------------------------------------------------
 #P Geom=AllCheck Guess=TCheck SCRF=Check Test GenChk RM062X/6-311+G(2d
 f,2p) Freq
 ----------------------------------------------------------------------

 Structure from the checkpoint file:  "/scratch/underkoffler.c/gaussian_scratch/Gau-6548.chk"
 ------------------------------
 Gaussian input prepared by ASE
 ------------------------------
 Charge =  0 Multiplicity = 1

                         Standard orientation:
 ---------------------------------------------------------------------
 Center     Atomic      Atomic             Coordinates (Angstroms)
 Number     Number       Type             X           Y           Z
 ---------------------------------------------------------------------
      1          8           0        0.012524   -0.708207    0.000000
      2          6           0        0.000000    0.699027    0.000000
      3          6           0       -1.436656    1.169190    0.000000
      4          6           0        1.312732   -1.233068    0.000000
      5          1           0        0.531722    1.074083   -0.884320
      6          1           0        0.531722    1.074083    0.884320
      7          1           0       -1.954449    0.798476   -0.883161
      8          1           0       -1.481583    2.257540    0.000000
      9          1           0       -1.954449    0.798476    0.883161
     10          1           0        1.868962   -0.915283   -0.889084
     11          1           0        1.868962   -0.915283    0.889084
     12          1           0        1.232462   -2.317331    0.000000
 ---------------------------------------------------------------------

 SCF Done:  E(RM062X) =  -194.315562323     A.U. after    1 cycles

 The electronic state is 1-A'.
 Alpha  occ. eigenvalues --  -19.62202 -10.57944 -10.57356 -10.52191  -1.16025
 Alpha  occ. eigenvalues --   -0.86131  -0.76609  -0.69404  -0.56380  -0.56068
 Alpha  occ. eigenvalues --   -0.52856  -0.48994  -0.44916  -0.42470  -0.41738
 Alpha  occ. eigenvalues --   -0.38932  -0.33087
 Alpha virt. eigenvalues --    0.01886   0.03050   0.04216   0.04357   0.05576
 Alpha virt. eigenvalues --    0.07100   0.07353   0.08626   0.09775   0.09970
 Alpha virt. eigenvalues --    0.13210   0.14348   0.18373   0.19233   0.19538

 Mulliken charges:
               1
     1  O   -0.166897
     2  C   -0.204791
     3  C   -0.406896
     4  C   -0.250464
     5  H    0.133484
     6  H    0.133484
     7  H    0.141361
     8  H    0.125852
     9  H    0.141361
    10  H    0.112714
    11  H    0.112714
    12  H    0.128078
 Sum of Mulliken charges =  -0.00000

 Dipole moment (field-independent basis, Debye):
    X=              0.9829    Y=              0.7742    Z=             -0.0000  Tot=              1.2511
 Quadrupole moment (field-independent basis, Debye-Ang):
   XX=            -25.8521   YY=            -25.9120   ZZ=            -26.7051
   XY=             -1.8454   XZ=              0.0000   YZ=              0.0000

  Exact polarizability:  46.094  -5.313  45.327  -0.000  -0.000  38.879
 Approx polarizability:  48.439  -0.777  48.929  -0.000  -0.000  46.114

                      1                      2                      3
                     A"                     A"                     A"
 Frequencies --    118.1146               219.3343               265.2141
 Red. masses --      2.2678                 1.0746                 1.2434
 Frc consts  --      0.0186                 0.0305                 0.0515
 IR Inten    --      2.6015                 1.2509                 2.4620

                      4                      5                      6
                     A'                     A'                     A"
 Frequencies --    295.9183               476.9268               821.7714
 Red. masses --      2.4351                 2.8575                 1.0857
 Frc consts  --      0.1256                 0.3829                 0.4320
 IR Inten    --      2.9833                 0.6744                 0.3436

                      7                      8                      9
                     A'                     A'                     A'
 Frequencies --    886.8501              1062.6228              1123.9393
 Red. masses --      1.9403                 2.9348                 1.7159
 Frc consts  --      0.8991                 1.9525                 1.2771
 IR Inten    --      8.8019                17.9174                 4.8516

                     10                     11                     12
                     A"                     A'                     A"
 Frequencies --   1174.5894              1203.6326              1203.7655
 Red. masses --      1.3485                 3.7722                 1.4791
 Frc consts  --      1.0961                 3.2199                 1.2628
 IR Inten    --      0.1924               117.6146                 9.1824

                     13                     14                     15
                     A'                     A"                     A'
 Frequencies --   1257.4487              1308.2674              1399.7445
 Red. masses --      2.2696                 1.0942                 1.2273
 Frc consts  --      2.1144                 1.1035                 1.4168
 IR Inten    --     74.2634                 2.3005                 0.8143

                     16                     17                     18
                     A'                     A'                     A"
 Frequencies --   1433.4073              1486.8465              1489.3914
 Red. masses --      1.3979                 1.1748                 1.0391
 Frc consts  --      1.6923                 1.5302                 1.3580
 IR Inten    --     31.1287                 0.2963                 5.6363

                     19                     20                     21
                     A"                     A'                     A'
 Frequencies --   1501.3973              1504.6478              1513.9852
 Red. masses --      1.0432                 1.0576                 1.0528
 Frc consts  --      1.3855                 1.4107                 1.4218
 IR Inten    --      8.8837                 4.9584                 5.5546

                     22                     23                     24
                     A'                     A'                     A'
 Frequencies --   1535.9596              2993.9133              3012.3367
 Red. masses --      1.0922                 1.0540                 1.0379
 Frc consts  --      1.5182                 5.5665                 5.5487
 IR Inten    --      3.0917                36.7100                67.2793

                     25                     26                     27
                     A"                     A"                     A'
 Frequencies --   3021.4507              3058.5146              3074.8373
 Red. masses --      1.1060                 1.1039                 1.0347
 Frc consts  --      5.9491                 6.0841                 5.7640
 IR Inten    --     51.0685                44.6737                13.7441

                     28                     29                     30
                     A'                     A'                     A"
 Frequencies --   3149.5224              3150.7373              3151.7957
 Red. masses --      1.1022                 1.0969                 1.1036
 Frc consts  --      6.4418                 6.4157                 6.4590
 IR Inten    --     18.6917                22.5150                19.9955

 - Thermochemistry -
 -------------------
 Temperature   298.150 Kelvin.  Pressure   1.00000 Atm.
 Atom     1 has atomic number  8 and mass  15.99491

 Molecular mass:    60.05751 amu.
 Principal axes and moments of inertia in atomic units:
                           1         2         3
     Eigenvalues --    63.27571 430.62492 460.03448
           X            0.70769   0.70653   0.00000
           Y           -0.70653   0.70769   0.00000
           Z           -0.00000   0.00000   1.00000
 This molecule is an asymmetric top.
 Rotational symmetry number  1.
 Rotational temperatures (Kelvin)      1.36883     0.20114     0.18828
 Rotational constants (GHZ):          28.52186     4.19098     3.92306
 Zero-point vibrational energy     286487.0 (Joules/Mol)
                                   68.47203 (Kcal/Mol)
 Warning -- explicit consideration of   5 degrees of freedom as
           vibrations may cause significant error
 Vibrational temperatures:    169.94   315.57   381.58   425.76   686.19
          (Kelvin)           1182.35  1275.98  1528.88  1617.10  1689.97
                             1731.76  1731.95  1809.19  1882.30  2013.92
                             2062.35  2139.24  2142.90  2160.18  2164.85
                             2178.29  2209.90  4307.57  4334.08  4347.19
                             4400.52  4424.01  4531.46  4533.21  4534.73

 Zero-point correction=                           0.109117 (Hartree/Particle)
 Thermal correction to Energy=                    0.114613
 Thermal correction to Enthalpy=                  0.115557
 Thermal correction to Gibbs Free Energy=         0.081406
 Sum of electronic and zero-point Energies=           -194.206445
 Sum of electronic and thermal Energies=              -194.200949
 Sum of electronic and thermal Enthalpies=            -194.200005
 Sum of electronic and thermal Free Energies=         -194.234156

                     E (Thermal)             CV                S
                      KCal/Mol        Cal/Mol-Kelvin    Cal/Mol-Kelvin
 Total                   71.921             17.719             71.877
 Electronic               0.000              0.000              0.000
 Translational            0.889              2.981             38.198
 Rotational               0.889              2.981             24.042
 Vibrational             70.143             11.757              9.637
 Vibration     1          0.608              1.934              3.131
 Vibration     2          0.647              1.812              1.965
 Vibration     3          0.671              1.737              1.627
 Vibration     4          0.690              1.681              1.440
 Vibration     5          0.833              1.301              0.718

 Optimization completed.
    -- Stationary point found.
 Normal termination of Gaussian 16 at Mon Mar 11 15:45:40 2019.
