 Gaussian 16, Revision A.03,
 Gaussian 16:  EM64L-G16RevA.03 25-Dec-2016

 ----------------------------------------------
 #p m062x/6-311+g(2df,2p) Opt=(CalcFC,ModRedun)
 ----------------------------------------------

 ----------------------------------------
 Gaussian Input Prepared from Scan Object
 ----------------------------------------
 Symbolic Z-matrix:
 Charge =  0 Multiplicity = 1

 SCF Done:  E(RM062X) =  -194.315562323     A.U. after   10 cycles

  Exact polarizability:   0.000   0.000   0.000   0.000   0.000   0.000
 Approx polarizability:  48.439   0.777  48.929  -0.000  -0.000  46.114

 Optimization completed.
    -- Stationary point found.
 SCF Done:  E(RM062X) =  -194.314066995     A.U. after    9 cycles
 SCF Done:  E(RM062X) =  -194.315270689     A.U. after    9 cycles
 SCF Done:  E(RM062X) =  -194.315288000     A.U. after    8 cycles
 Optimization completed.
 SCF Done:  E(RM062X) =  -194.313258286     A.U. after    9 cycles
 SCF Done:  E(RM062X) =  -194.314492248     A.U. after    9 cycles
 SCF Done:  E(RM062X) =  -194.314515449     A.U. after    8 cycles
 SCF Done:  E(RM062X) =  -194.312058783     A.U. after    9 cycles
 SCF Done:  E(RM062X) =  -194.313372377     A.U. after    9 cycles
 SCF Done:  E(RM062X) =  -194.313404662     A.U. after    8 cycles
 SCF Done:  E(RM062X) =  -194.313385713     A.U. after    8 cycles
 SCF Done:  E(RM062X) =  -194.313106913     A.U. after    9 cycles
 SCF Done:  E(RM062X) =  -194.314493034     A.U. after    9 cycles
 SCF Done:  E(RM062X) =  -194.314507043     A.U. after    8 cycles
 SCF Done:  E(RM062X) =  -194.313992834     A.U. after    9 cycles
 SCF Done:  E(RM062X) =  -194.315274129     A.U. after    9 cycles
 SCF Done:  E(RM062X) =  -194.315286323     A.U. after    8 cycles
    -- Stationary point found.
 SCF Done:  E(RM062X) =  -194.314329363     A.U. after    9 cycles
 SCF Done:  E(RM062X) =  -194.315551456     A.U. after    9 cycles
 SCF Done:  E(RM062X) =  -194.315563926     A.U. after    8 cycles
 Optimization completed.
    -- Stationary point found.

                         Standard orientation:
 ---------------------------------------------------------------------
 Center     Atomic      Atomic             Coordinates (Angstroms)
 Number     Number       Type             X           Y           Z
 ---------------------------------------------------------------------
      1          8           0       -0.503289   -0.498563    0.000055
      2          6           0        0.487850    0.500595    0.000030
      3          6           0        1.844979   -0.165126   -0.000022
      4          6           0       -1.800767    0.032988   -0.000046
      5          1           0        0.368567    1.140456    0.884190
      6          1           0        0.369350    1.140022   -0.884542
      7          1           0        1.956860   -0.791652    0.883425
      8          1           0        2.636596    0.583080   -0.000115
      9          1           0        1.957261   -0.792321   -0.882929
     10          1           0       -1.977450    0.648755    0.889034
     11          1           0       -1.977215    0.648971   -0.889033
     12          1           0       -2.500025   -0.799553   -0.000243
 ---------------------------------------------------------------------

 The electronic state is 1-A.
 Alpha  occ. eigenvalues --  -19.62203 -10.57944 -10.57356 -10.52191  -1.16023
 Alpha  occ. eigenvalues --   -0.86133  -0.76609  -0.69403  -0.56379  -0.56068
 Alpha  occ. eigenvalues --   -0.52856  -0.48994  -0.44917  -0.42470  -0.41737
 Alpha  occ. eigenvalues --   -0.38931  -0.33087
 Alpha virt. eigenvalues --    0.01886   0.03050   0.04216   0.04357   0.05576
 Alpha virt. eigenvalues --    0.07100   0.07353   0.08627   0.09775   0.09970
 Alpha virt. eigenvalues --    0.13211   0.14348   0.18374   0.19232   0.19537

 Mulliken charges:
               1
     1  O   -0.166939
     2  C   -0.204817
     3  C   -0.406851
     4  C   -0.250453
     5  H    0.133492
     6  H    0.133500
     7  H    0.141336
     8  H    0.125868
     9  H    0.141369
    10  H    0.112719
    11  H    0.112705
    12  H    0.128071
 Sum of Mulliken charges =  -0.00000

 Dipole moment (field-independent basis, Debye):
    X=             -0.1633    Y=              1.2407    Z=             -0.0002  Tot=              1.2514
 Quadrupole moment (field-independent basis, Debye-Ang):
   XX=            -24.0368   YY=            -27.7278   ZZ=            -26.7050
   XY=              0.0187   XZ=             -0.0012   YZ=              0.0009

 Normal termination of Gaussian 16 at Mon Mar 11 20:17:01 2019.
