 Gaussian 16, Revision A.03,
 Gaussian 16:  EM64L-G16RevA.03 25-Dec-2016

 ----------------------------------------------
 #p m062x/6-311+g(2df,2p) Opt=(CalcFC,ModRedun)
 ----------------------------------------------

 ----------------------------------------
 Gaussian Input Prepared from Scan Object
 ----------------------------------------
 Symbolic Z-matrix:
 Charge =  0 Multiplicity = 1

 SCF Done:  E(RM062X) =  -194.315562323     A.U. after   10 cycles

  Exact polarizability:   0.000   0.000   0.000   0.000   0.000   0.000
 Approx polarizability:  48.439   0.777  48.929  -0.000  -0.000  46.114

 Optimization completed.
    -- Stationary point found.
 SCF Done:  E(RM062X) =  -194.314359632     A.U. after    9 cycles
 SCF Done:  E(RM062X) =  -194.315292767     A.U. after    9 cycles
 SCF Done:  E(RM062X) =  -194.315296481     A.U. after    8 cycles
 Optimization completed.
 SCF Done:  E(RM062X) =  -194.313570831     A.U. after    9 cycles
 SCF Done:  E(RM062X) =  -194.314547523     A.U. after    9 cycles
 SCF Done:  E(RM062X) =  -194.314552567     A.U. after    8 cycles
 SCF Done:  E(RM062X) =  -194.312467199     A.U. after    9 cycles
 SCF Done:  E(RM062X) =  -194.313511208     A.U. after    9 cycles
 SCF Done:  E(RM062X) =  -194.313517179     A.U. after    8 cycles
 SCF Done:  E(RM062X) =  -194.313487159     A.U. after    9 cycles
 SCF Done:  E(RM062X) =  -194.314554846     A.U. after    9 cycles
 SCF Done:  E(RM062X) =  -194.314558560     A.U. after    7 cycles
 SCF Done:  E(RM062X) =  -194.314558617     A.U. after    6 cycles
 SCF Done:  E(RM062X) =  -194.314316692     A.U. after    9 cycles
 SCF Done:  E(RM062X) =  -194.315292849     A.U. after    9 cycles
 SCF Done:  E(RM062X) =  -194.315297180     A.U. after    8 cycles
    -- Stationary point found.
 SCF Done:  E(RM062X) =  -194.314627238     A.U. after    9 cycles
 SCF Done:  E(RM062X) =  -194.315559568     A.U. after    9 cycles
 SCF Done:  E(RM062X) =  -194.315564007     A.U. after    8 cycles
 Optimization completed.
    -- Stationary point found.

                         Standard orientation:
 ---------------------------------------------------------------------
 Center     Atomic      Atomic             Coordinates (Angstroms)
 Number     Number       Type             X           Y           Z
 ---------------------------------------------------------------------
      1          8           0       -0.503157   -0.498407    0.000060
      2          6           0        0.487883    0.500727    0.000034
      3          6           0        1.844877   -0.165216   -0.000021
      4          6           0       -1.800773    0.032855   -0.000034
      5          1           0        0.368786    1.140562    0.884292
      6          1           0        0.368793    1.140327   -0.884349
      7          1           0        1.957231   -0.791578    0.883460
      8          1           0        2.636693    0.582812   -0.000721
      9          1           0        1.956629   -0.792566   -0.882885
     10          1           0       -1.977437    0.648892    0.888853
     11          1           0       -1.977539    0.648462   -0.889211
     12          1           0       -2.499824   -0.799859    0.000208
 ---------------------------------------------------------------------

 The electronic state is 1-A.
 Alpha  occ. eigenvalues --  -19.62202 -10.57944 -10.57356 -10.52191  -1.16025
 Alpha  occ. eigenvalues --   -0.86132  -0.76609  -0.69403  -0.56379  -0.56069
 Alpha  occ. eigenvalues --   -0.52856  -0.48994  -0.44915  -0.42472  -0.41737
 Alpha  occ. eigenvalues --   -0.38931  -0.33086
 Alpha virt. eigenvalues --    0.01886   0.03050   0.04216   0.04357   0.05576
 Alpha virt. eigenvalues --    0.07100   0.07353   0.08626   0.09775   0.09969
 Alpha virt. eigenvalues --    0.13210   0.14347   0.18373   0.19233   0.19538

 Mulliken charges:
               1
     1  O   -0.166878
     2  C   -0.204810
     3  C   -0.406888
     4  C   -0.250469
     5  H    0.133480
     6  H    0.133484
     7  H    0.141361
     8  H    0.125854
     9  H    0.141362
    10  H    0.112706
    11  H    0.112724
    12  H    0.128073
 Sum of Mulliken charges =  -0.00000

 Dipole moment (field-independent basis, Debye):
    X=             -0.1638    Y=              1.2402    Z=             -0.0002  Tot=              1.2510
 Quadrupole moment (field-independent basis, Debye-Ang):
   XX=            -24.0363   YY=            -27.7272   ZZ=            -26.7053
   XY=              0.0183   XZ=             -0.0002   YZ=              0.0003

 Normal termination of Gaussian 16 at Mon Mar 11 20:21:00 2019.
