 Gaussian 16, Revision A.03,
 Gaussian 16:  EM64L-G16RevA.03 25-Dec-2016

 ----------------------------------------------
 #p m062x/6-311+g(2df,2p) Opt=(CalcFC,ModRedun)
 ----------------------------------------------

 ----------------------------------------
 Gaussian Input Prepared from Scan Object
 ----------------------------------------
 Symbolic Z-matrix:
 Charge =  0 Multiplicity = 1

 SCF Done:  E(RM062X) =  -194.315562323     A.U. after   10 cycles

  Exact polarizability:   0.000   0.000   0.000   0.000   0.000   0.000
 Approx polarizability:  48.439   0.777  48.929  -0.000   0.000  46.114

 Optimization completed.
    -- Stationary point found.
 SCF Done:  E(RM062X) =  -194.314270258     A.U. after    9 cycles
 SCF Done:  E(RM062X) =  -194.315294747     A.U. after    9 cycles
 SCF Done:  E(RM062X) =  -194.315297188     A.U. after    8 cycles
 Optimization completed.
 SCF Done:  E(RM062X) =  -194.313494519     A.U. after    9 cycles
 SCF Done:  E(RM062X) =  -194.314553677     A.U. after    9 cycles
 SCF Done:  E(RM062X) =  -194.314558565     A.U. after    8 cycles
 SCF Done:  E(RM062X) =  -194.312375180     A.U. after    9 cycles
 SCF Done:  E(RM062X) =  -194.313523257     A.U. after    9 cycles
 SCF Done:  E(RM062X) =  -194.313527142     A.U. after    8 cycles
 SCF Done:  E(RM062X) =  -194.313517267     A.U. after    6 cycles
 SCF Done:  E(RM062X) =  -194.313395542     A.U. after    9 cycles
 SCF Done:  E(RM062X) =  -194.314551023     A.U. after    9 cycles
 SCF Done:  E(RM062X) =  -194.314552600     A.U. after    7 cycles
 SCF Done:  E(RM062X) =  -194.314218402     A.U. after    9 cycles
 SCF Done:  E(RM062X) =  -194.315294968     A.U. after    9 cycles
 SCF Done:  E(RM062X) =  -194.315296476     A.U. after    7 cycles
    -- Stationary point found.
 SCF Done:  E(RM062X) =  -194.314535767     A.U. after    9 cycles
 SCF Done:  E(RM062X) =  -194.315561506     A.U. after    9 cycles
 SCF Done:  E(RM062X) =  -194.315564012     A.U. after    7 cycles
 Optimization completed.
    -- Stationary point found.

                         Standard orientation:
 ---------------------------------------------------------------------
 Center     Atomic      Atomic             Coordinates (Angstroms)
 Number     Number       Type             X           Y           Z
 ---------------------------------------------------------------------
      1          8           0       -0.503181   -0.498419    0.000029
      2          6           0        0.487891    0.500723    0.000026
      3          6           0        1.844899   -0.165191   -0.000002
      4          6           0       -1.800760    0.032865   -0.000024
      5          1           0        0.368685    1.140478    0.884300
      6          1           0        0.368732    1.140315   -0.884352
      7          1           0        1.957038   -0.792059    0.883171
      8          1           0        2.636774    0.582761   -0.000132
      9          1           0        1.956779   -0.792066   -0.883195
     10          1           0       -1.977406    0.648898    0.888910
     11          1           0       -1.977534    0.648490   -0.889168
     12          1           0       -2.499800   -0.799856    0.000237
 ---------------------------------------------------------------------

 The electronic state is 1-A.
 Alpha  occ. eigenvalues --  -19.62202 -10.57944 -10.57356 -10.52192  -1.16025
 Alpha  occ. eigenvalues --   -0.86133  -0.76608  -0.69403  -0.56379  -0.56069
 Alpha  occ. eigenvalues --   -0.52856  -0.48994  -0.44916  -0.42472  -0.41737
 Alpha  occ. eigenvalues --   -0.38931  -0.33086
 Alpha virt. eigenvalues --    0.01886   0.03050   0.04216   0.04357   0.05576
 Alpha virt. eigenvalues --    0.07100   0.07353   0.08626   0.09775   0.09969
 Alpha virt. eigenvalues --    0.13210   0.14347   0.18373   0.19233   0.19538

 Mulliken charges:
               1
     1  O   -0.166870
     2  C   -0.204797
     3  C   -0.406898
     4  C   -0.250472
     5  H    0.133478
     6  H    0.133489
     7  H    0.141355
     8  H    0.125862
     9  H    0.141362
    10  H    0.112693
    11  H    0.112725
    12  H    0.128073
 Sum of Mulliken charges =  -0.00000

 Dipole moment (field-independent basis, Debye):
    X=             -0.1635    Y=              1.2402    Z=             -0.0001  Tot=              1.2510
 Quadrupole moment (field-independent basis, Debye-Ang):
   XX=            -24.0362   YY=            -27.7274   ZZ=            -26.7053
   XY=              0.0183   XZ=              0.0001   YZ=              0.0000

 Normal termination of Gaussian 16 at Tue Mar 12 01:09:56 2019.
