 Gaussian 16, Revision A.03,
 Gaussian 16:  EM64L-G16RevA.03 25-Dec-2016

 ----------------------------------------------
 #p m062x/6-311+g(2df,2p) Opt=(CalcFC,ModRedun)
 ----------------------------------------------

 ----------------------------------------
 Gaussian Input Prepared from Scan Object
 ----------------------------------------
 Symbolic Z-matrix:
 Charge =  0 Multiplicity = 1

 SCF Done:  E(RM062X) =  -194.315562323     A.U. after   10 cycles

  Exact polarizability:   0.000   0.000   0.000   0.000   0.000   0.000
 Approx polarizability:  48.439   0.777  48.929  -0.000  -0.000  46.114

 Optimization completed.
    -- Stationary point found.
 SCF Done:  E(RM062X) =  -194.314005607     A.U. after    9 cycles
 SCF Done:  E(RM062X) =  -194.315245079     A.U. after    9 cycles
 SCF Done:  E(RM062X) =  -194.315269218     A.U. after    8 cycles
 Optimization completed.
 SCF Done:  E(RM062X) =  -194.313139408     A.U. after    9 cycles
 SCF Done:  E(RM062X) =  -194.314418093     A.U. after    9 cycles
 SCF Done:  E(RM062X) =  -194.314447524     A.U. after    8 cycles
 SCF Done:  E(RM062X) =  -194.311872875     A.U. after   10 cycles
 SCF Done:  E(RM062X) =  -194.313243678     A.U. after   10 cycles
 SCF Done:  E(RM062X) =  -194.313282619     A.U. after    8 cycles
 SCF Done:  E(RM062X) =  -194.313290486     A.U. after    8 cycles
 SCF Done:  E(RM062X) =  -194.313014273     A.U. after    9 cycles
 SCF Done:  E(RM062X) =  -194.314431278     A.U. after   10 cycles
 SCF Done:  E(RM062X) =  -194.314451422     A.U. after    8 cycles
 SCF Done:  E(RM062X) =  -194.313939777     A.U. after    9 cycles
 SCF Done:  E(RM062X) =  -194.315252931     A.U. after    9 cycles
 SCF Done:  E(RM062X) =  -194.315270141     A.U. after    8 cycles
    -- Stationary point found.
 SCF Done:  E(RM062X) =  -194.314292419     A.U. after    9 cycles
 SCF Done:  E(RM062X) =  -194.315545846     A.U. after    9 cycles
 SCF Done:  E(RM062X) =  -194.315563995     A.U. after    8 cycles
 Optimization completed.
    -- Stationary point found.

                         Standard orientation:
 ---------------------------------------------------------------------
 Center     Atomic      Atomic             Coordinates (Angstroms)
 Number     Number       Type             X           Y           Z
 ---------------------------------------------------------------------
      1          8           0       -0.503235   -0.498540    0.000084
      2          6           0        0.487848    0.500618    0.000018
      3          6           0        1.844920   -0.165156   -0.000077
      4          6           0       -1.800738    0.032961   -0.000050
      5          1           0        0.369114    1.140099    0.884550
      6          1           0        0.368553    1.140390   -0.884218
      7          1           0        1.956900   -0.791888    0.883201
      8          1           0        2.636545    0.583113   -0.000054
      9          1           0        1.957178   -0.791993   -0.883226
     10          1           0       -1.977368    0.648937    0.888901
     11          1           0       -1.977257    0.648720   -0.889170
     12          1           0       -2.499967   -0.799604    0.000008
 ---------------------------------------------------------------------

 The electronic state is 1-A.
 Alpha  occ. eigenvalues --  -19.62202 -10.57943 -10.57356 -10.52191  -1.16024
 Alpha  occ. eigenvalues --   -0.86133  -0.76609  -0.69402  -0.56380  -0.56068
 Alpha  occ. eigenvalues --   -0.52856  -0.48995  -0.44916  -0.42470  -0.41738
 Alpha  occ. eigenvalues --   -0.38931  -0.33087
 Alpha virt. eigenvalues --    0.01886   0.03050   0.04217   0.04357   0.05576
 Alpha virt. eigenvalues --    0.07100   0.07353   0.08627   0.09775   0.09970
 Alpha virt. eigenvalues --    0.13211   0.14348   0.18374   0.19231   0.19538

 Mulliken charges:
               1
     1  O   -0.166909
     2  C   -0.204801
     3  C   -0.406863
     4  C   -0.250459
     5  H    0.133510
     6  H    0.133463
     7  H    0.141365
     8  H    0.125854
     9  H    0.141348
    10  H    0.112708
    11  H    0.112712
    12  H    0.128073
 Sum of Mulliken charges =  -0.00000

 Dipole moment (field-independent basis, Debye):
    X=             -0.1634    Y=              1.2406    Z=             -0.0001  Tot=              1.2513
 Quadrupole moment (field-independent basis, Debye-Ang):
   XX=            -24.0370   YY=            -27.7280   ZZ=            -26.7048
   XY=              0.0184   XZ=              0.0002   YZ=              0.0001

 Normal termination of Gaussian 16 at Tue Mar 12 01:06:11 2019.
