 Gaussian 16, Revision A.03,
 Gaussian 16:  EM64L-G16RevA.03 25-Dec-2016

 ----------------------------------------------
 #p m062x/6-311+g(2df,2p) Opt=(CalcFC,ModRedun)
 ----------------------------------------------

 ----------------------------------------
 Gaussian Input Prepared from Scan Object
 ----------------------------------------
 Symbolic Z-matrix:
 Charge =  0 Multiplicity = 1

 SCF Done:  E(RM062X) =  -194.315562323     A.U. after   10 cycles

  Exact polarizability:   0.000   0.000   0.000   0.000   0.000   0.000
 Approx polarizability:  48.439   0.777  48.929  -0.000   0.000  46.114

 Optimization completed.
    -- Stationary point found.
 SCF Done:  E(RM062X) =  -194.305898830     A.U. after   12 cycles
 SCF Done:  E(RM062X) =  -194.313149540     A.U. after   10 cycles
 SCF Done:  E(RM062X) =  -194.313486524     A.U. after    9 cycles
 SCF Done:  E(RM062X) =  -194.313489656     A.U. after    7 cycles
 Optimization completed.
 SCF Done:  E(RM062X) =  -194.302004861     A.U. after   11 cycles
 SCF Done:  E(RM062X) =  -194.310758383     A.U. after   10 cycles
 SCF Done:  E(RM062X) =  -194.311370816     A.U. after    9 cycles
 SCF Done:  E(RM062X) =  -194.311378284     A.U. after    8 cycles
 SCF Done:  E(RM062X) =  -194.303571711     A.U. after   11 cycles
 SCF Done:  E(RM062X) =  -194.311378366     A.U. after    6 cycles
 SCF Done:  E(RM062X) =  -194.304195248     A.U. after   11 cycles
 SCF Done:  E(RM062X) =  -194.312891710     A.U. after   10 cycles
 SCF Done:  E(RM062X) =  -194.313479520     A.U. after    9 cycles
 SCF Done:  E(RM062X) =  -194.313489473     A.U. after    8 cycles
 SCF Done:  E(RM062X) =  -194.313489673     A.U. after    6 cycles
    -- Stationary point found.
 SCF Done:  E(RM062X) =  -194.307840649     A.U. after   11 cycles
 SCF Done:  E(RM062X) =  -194.315233577     A.U. after   10 cycles
 SCF Done:  E(RM062X) =  -194.315561481     A.U. after    9 cycles
 SCF Done:  E(RM062X) =  -194.315564004     A.U. after    7 cycles
 Optimization completed.
    -- Stationary point found.

                         Standard orientation:
 ---------------------------------------------------------------------
 Center     Atomic      Atomic             Coordinates (Angstroms)
 Number     Number       Type             X           Y           Z
 ---------------------------------------------------------------------
      1          8           0       -0.503142   -0.498481    0.000012
      2          6           0        0.487832    0.500784    0.000004
      3          6           0        1.844832   -0.165183    0.000008
      4          6           0       -1.800699    0.032882    0.000009
      5          1           0        0.368713    1.140430    0.884345
      6          1           0        0.368766    1.140252   -0.884461
      7          1           0        1.957143   -0.791429    0.883587
      8          1           0        2.636732    0.582755   -0.000813
      9          1           0        1.956490   -0.792724   -0.882752
     10          1           0       -1.977533    0.648597    0.889091
     11          1           0       -1.977183    0.648875   -0.888986
     12          1           0       -2.499778   -0.799809   -0.000235
 ---------------------------------------------------------------------

 The electronic state is 1-A.
 Alpha  occ. eigenvalues --  -19.62202 -10.57943 -10.57356 -10.52191  -1.16025
 Alpha  occ. eigenvalues --   -0.86132  -0.76607  -0.69404  -0.56380  -0.56068
 Alpha  occ. eigenvalues --   -0.52856  -0.48993  -0.44915  -0.42470  -0.41738
 Alpha  occ. eigenvalues --   -0.38932  -0.33087
 Alpha virt. eigenvalues --    0.01886   0.03050   0.04216   0.04357   0.05576
 Alpha virt. eigenvalues --    0.07100   0.07353   0.08626   0.09775   0.09969
 Alpha virt. eigenvalues --    0.13210   0.14347   0.18373   0.19234   0.19538

 Mulliken charges:
               1
     1  O   -0.166880
     2  C   -0.204806
     3  C   -0.406894
     4  C   -0.250472
     5  H    0.133490
     6  H    0.133492
     7  H    0.141365
     8  H    0.125856
     9  H    0.141362
    10  H    0.112725
    11  H    0.112691
    12  H    0.128070
 Sum of Mulliken charges =  -0.00000

 Dipole moment (field-independent basis, Debye):
    X=             -0.1636    Y=              1.2404    Z=             -0.0000  Tot=              1.2512
 Quadrupole moment (field-independent basis, Debye-Ang):
   XX=            -24.0374   YY=            -27.7275   ZZ=            -26.7049
   XY=              0.0184   XZ=             -0.0004   YZ=              0.0004

 Normal termination of Gaussian 16 at Fri Mar 29 09:42:34 2019.
