 Gaussian 16, Revision A.03,
 Gaussian 16:  EM64L-G16RevA.03 25-Dec-2016

 ----------------------------------------------
 #p m062x/6-311+g(2df,2p) Opt=(CalcFC,ModRedun)
 ----------------------------------------------

 ----------------------------------------
 Gaussian Input Prepared from Scan Object
 ----------------------------------------
 Symbolic Z-matrix:
 Charge =  0 Multiplicity = 1

 SCF Done:  E(RM062X) =  -194.315562323     A.U. after   10 cycles

  Exact polarizability:   0.000   0.000   0.000   0.000   0.000   0.000
 Approx polarizability:  48.439   0.777  48.929   0.000   0.000  46.114

 Optimization completed.
    -- Stationary point found.
 SCF Done:  E(RM062X) =  -194.314428218     A.U. after    9 cycles
 SCF Done:  E(RM062X) =  -194.315318621     A.U. after    9 cycles
 SCF Done:  E(RM062X) =  -194.315320098     A.U. after    7 cycles
 Optimization completed.
 SCF Done:  E(RM062X) =  -194.313709584     A.U. after    9 cycles
 SCF Done:  E(RM062X) =  -194.314637241     A.U. after    9 cycles
 SCF Done:  E(RM062X) =  -194.314639671     A.U. after    7 cycles
 SCF Done:  E(RM062X) =  -194.312669979     A.U. after    9 cycles
 SCF Done:  E(RM062X) =  -194.313684041     A.U. after    9 cycles
 SCF Done:  E(RM062X) =  -194.313687996     A.U. after    7 cycles
 SCF Done:  E(RM062X) =  -194.313688019     A.U. after    6 cycles
 SCF Done:  E(RM062X) =  -194.313586437     A.U. after    9 cycles
 SCF Done:  E(RM062X) =  -194.314639344     A.U. after    9 cycles
 SCF Done:  E(RM062X) =  -194.314639684     A.U. after    6 cycles
 SCF Done:  E(RM062X) =  -194.314366270     A.U. after    9 cycles
 SCF Done:  E(RM062X) =  -194.315319566     A.U. after    9 cycles
 SCF Done:  E(RM062X) =  -194.315320102     A.U. after    7 cycles
    -- Stationary point found.
 SCF Done:  E(RM062X) =  -194.314665161     A.U. after    9 cycles
 SCF Done:  E(RM062X) =  -194.315563481     A.U. after    9 cycles
 SCF Done:  E(RM062X) =  -194.315564020     A.U. after    7 cycles
 Optimization completed.
    -- Stationary point found.

                         Standard orientation:
 ---------------------------------------------------------------------
 Center     Atomic      Atomic             Coordinates (Angstroms)
 Number     Number       Type             X           Y           Z
 ---------------------------------------------------------------------
      1          8           0       -0.503199   -0.498450   -0.000013
      2          6           0        0.487858    0.500727   -0.000001
      3          6           0        1.844911   -0.165191    0.000007
      4          6           0       -1.800756    0.032879    0.000003
      5          1           0        0.368740    1.140386    0.884345
      6          1           0        0.368742    1.140371   -0.884364
      7          1           0        1.957005   -0.791993    0.883219
      8          1           0        2.636734    0.582826   -0.000057
      9          1           0        1.956963   -0.792094   -0.883140
     10          1           0       -1.977446    0.648678    0.889074
     11          1           0       -1.977410    0.648755   -0.889020
     12          1           0       -2.499817   -0.799823   -0.000006
 ---------------------------------------------------------------------

 The electronic state is 1-A.
 Alpha  occ. eigenvalues --  -19.62202 -10.57944 -10.57356 -10.52192  -1.16025
 Alpha  occ. eigenvalues --   -0.86132  -0.76608  -0.69403  -0.56379  -0.56068
 Alpha  occ. eigenvalues --   -0.52856  -0.48994  -0.44915  -0.42471  -0.41738
 Alpha  occ. eigenvalues --   -0.38931  -0.33086
 Alpha virt. eigenvalues --    0.01886   0.03050   0.04216   0.04357   0.05576
 Alpha virt. eigenvalues --    0.07100   0.07353   0.08626   0.09775   0.09969
 Alpha virt. eigenvalues --    0.13210   0.14347   0.18373   0.19233   0.19538

 Mulliken charges:
               1
     1  O   -0.166872
     2  C   -0.204801
     3  C   -0.406902
     4  C   -0.250466
     5  H    0.133488
     6  H    0.133486
     7  H    0.141361
     8  H    0.125859
     9  H    0.141361
    10  H    0.112707
    11  H    0.112706
    12  H    0.128072
 Sum of Mulliken charges =  -0.00000

 Dipole moment (field-independent basis, Debye):
    X=             -0.1635    Y=              1.2403    Z=              0.0000  Tot=              1.2510
 Quadrupole moment (field-independent basis, Debye-Ang):
   XX=            -24.0366   YY=            -27.7275   ZZ=            -26.7051
   XY=              0.0182   XZ=             -0.0001   YZ=             -0.0000

 Normal termination of Gaussian 16 at Mon Mar 11 20:14:56 2019.
