 Gaussian 16, Revision A.03,
 Gaussian 16:  EM64L-G16RevA.03 25-Dec-2016

 ----------------------------------------------
 #p m062x/6-311+g(2df,2p) Opt=(CalcFC,ModRedun)
 ----------------------------------------------

 ----------------------------------------
 Gaussian Input Prepared from Scan Object
 ----------------------------------------
 Symbolic Z-matrix:
 Charge =  0 Multiplicity = 1

 SCF Done:  E(RM062X) =  -194.315562323     A.U. after   10 cycles

  Exact polarizability:   0.000   0.000   0.000   0.000   0.000   0.000
 Approx polarizability:  48.439   0.777  48.929  -0.000   0.000  46.114

 Optimization completed.
    -- Stationary point found.
 SCF Done:  E(RM062X) =  -194.314428218     A.U. after    9 cycles
 SCF Done:  E(RM062X) =  -194.315317154     A.U. after    9 cycles
 SCF Done:  E(RM062X) =  -194.315318620     A.U. after    7 cycles
 Optimization completed.
 SCF Done:  E(RM062X) =  -194.313705699     A.U. after    9 cycles
 SCF Done:  E(RM062X) =  -194.314634485     A.U. after    9 cycles
 SCF Done:  E(RM062X) =  -194.314637028     A.U. after    7 cycles
 SCF Done:  E(RM062X) =  -194.312666829     A.U. after    9 cycles
 SCF Done:  E(RM062X) =  -194.313682421     A.U. after    9 cycles
 SCF Done:  E(RM062X) =  -194.313686173     A.U. after    7 cycles
 SCF Done:  E(RM062X) =  -194.313686165     A.U. after    6 cycles
 SCF Done:  E(RM062X) =  -194.313582431     A.U. after    9 cycles
 SCF Done:  E(RM062X) =  -194.314636472     A.U. after    9 cycles
 SCF Done:  E(RM062X) =  -194.314637027     A.U. after    6 cycles
 SCF Done:  E(RM062X) =  -194.314363909     A.U. after    9 cycles
 SCF Done:  E(RM062X) =  -194.315318249     A.U. after    9 cycles
 SCF Done:  E(RM062X) =  -194.315318629     A.U. after    6 cycles
    -- Stationary point found.
 SCF Done:  E(RM062X) =  -194.314666228     A.U. after    9 cycles
 SCF Done:  E(RM062X) =  -194.315563593     A.U. after    9 cycles
 SCF Done:  E(RM062X) =  -194.315564022     A.U. after    6 cycles
 Optimization completed.
    -- Stationary point found.

                         Standard orientation:
 ---------------------------------------------------------------------
 Center     Atomic      Atomic             Coordinates (Angstroms)
 Number     Number       Type             X           Y           Z
 ---------------------------------------------------------------------
      1          8           0       -0.503190   -0.498520   -0.000003
      2          6           0        0.487818    0.500696    0.000002
      3          6           0        1.844903   -0.165152    0.000000
      4          6           0       -1.800721    0.032912   -0.000001
      5          1           0        0.368680    1.140343    0.884359
      6          1           0        0.368660    1.140353   -0.884344
      7          1           0        1.957036   -0.791951    0.883209
      8          1           0        2.636683    0.582910   -0.000069
      9          1           0        1.956984   -0.792047   -0.883149
     10          1           0       -1.977329    0.648737    0.889054
     11          1           0       -1.977301    0.648773   -0.889042
     12          1           0       -2.499896   -0.799690   -0.000003
 ---------------------------------------------------------------------

 The electronic state is 1-A.
 Alpha  occ. eigenvalues --  -19.62202 -10.57944 -10.57356 -10.52192  -1.16025
 Alpha  occ. eigenvalues --   -0.86131  -0.76608  -0.69404  -0.56380  -0.56068
 Alpha  occ. eigenvalues --   -0.52857  -0.48994  -0.44915  -0.42470  -0.41738
 Alpha  occ. eigenvalues --   -0.38932  -0.33087
 Alpha virt. eigenvalues --    0.01886   0.03050   0.04216   0.04357   0.05576
 Alpha virt. eigenvalues --    0.07100   0.07353   0.08626   0.09775   0.09970
 Alpha virt. eigenvalues --    0.13210   0.14348   0.18373   0.19233   0.19538

 Mulliken charges:
               1
     1  O   -0.166882
     2  C   -0.204782
     3  C   -0.406922
     4  C   -0.250458
     5  H    0.133486
     6  H    0.133484
     7  H    0.141362
     8  H    0.125859
     9  H    0.141361
    10  H    0.112710
    11  H    0.112708
    12  H    0.128075
 Sum of Mulliken charges =  -0.00000

 Dipole moment (field-independent basis, Debye):
    X=             -0.1635    Y=              1.2404    Z=              0.0000  Tot=              1.2512
 Quadrupole moment (field-independent basis, Debye-Ang):
   XX=            -24.0366   YY=            -27.7277   ZZ=            -26.7051
   XY=              0.0181   XZ=             -0.0000   YZ=             -0.0000

 Normal termination of Gaussian 16 at Tue Apr 23 22:16:49 2019.
