 Gaussian 16, Revision A.03,
 Gaussian 16:  EM64L-G16RevA.03 25-Dec-2016

 ----------------------------------------------
 #p m062x/6-311+g(2df,2p) Opt=(CalcFC,ModRedun)
 ----------------------------------------------

 ----------------------------------------
 Gaussian Input Prepared from Scan Object
 ----------------------------------------
 Symbolic Z-matrix:
 Charge =  0 Multiplicity = 1

 SCF Done:  E(RM062X) =  -194.315562323     A.U. after   10 cycles

  Exact polarizability:   0.000   0.000   0.000   0.000   0.000   0.000
 Approx polarizability:  48.439   0.777  48.929  -0.000  -0.000  46.114

 Optimization completed.
    -- Stationary point found.
 SCF Done:  E(RM062X) =  -194.304607629     A.U. after   10 cycles
 SCF Done:  E(RM062X) =  -194.313184312     A.U. after   10 cycles
 SCF Done:  E(RM062X) =  -194.313674404     A.U. after    9 cycles
 SCF Done:  E(RM062X) =  -194.313677594     A.U. after    7 cycles
 Optimization completed.
 SCF Done:  E(RM062X) =  -194.300115079     A.U. after   11 cycles
 SCF Done:  E(RM062X) =  -194.310626903     A.U. after   10 cycles
 SCF Done:  E(RM062X) =  -194.311713283     A.U. after   10 cycles
 SCF Done:  E(RM062X) =  -194.311718138     A.U. after    7 cycles
 SCF Done:  E(RM062X) =  -194.301549658     A.U. after   11 cycles
 SCF Done:  E(RM062X) =  -194.311718565     A.U. after    7 cycles
 SCF Done:  E(RM062X) =  -194.303029617     A.U. after   11 cycles
 SCF Done:  E(RM062X) =  -194.312996940     A.U. after   10 cycles
 SCF Done:  E(RM062X) =  -194.313669451     A.U. after    9 cycles
 SCF Done:  E(RM062X) =  -194.313675345     A.U. after    8 cycles
 SCF Done:  E(RM062X) =  -194.313675462     A.U. after    6 cycles
    -- Stationary point found.
 SCF Done:  E(RM062X) =  -194.306357862     A.U. after   10 cycles
 SCF Done:  E(RM062X) =  -194.315171736     A.U. after   10 cycles
 SCF Done:  E(RM062X) =  -194.315562125     A.U. after    9 cycles
 SCF Done:  E(RM062X) =  -194.315563999     A.U. after    7 cycles
 Optimization completed.
    -- Stationary point found.

                         Standard orientation:
 ---------------------------------------------------------------------
 Center     Atomic      Atomic             Coordinates (Angstroms)
 Number     Number       Type             X           Y           Z
 ---------------------------------------------------------------------
      1          8           0       -0.503187   -0.498575    0.000266
      2          6           0        0.487758    0.500670    0.000100
      3          6           0        1.844874   -0.165115   -0.000137
      4          6           0       -1.800655    0.032939   -0.000105
      5          1           0        0.368782    1.140325    0.884477
      6          1           0        0.368400    1.140314   -0.884234
      7          1           0        1.957122   -0.792014    0.882987
      8          1           0        2.636615    0.582988   -0.000186
      9          1           0        1.956896   -0.791897   -0.883372
     10          1           0       -1.977354    0.649196    0.888613
     11          1           0       -1.977139    0.648461   -0.889407
     12          1           0       -2.499685   -0.799737   -0.000159
 ---------------------------------------------------------------------

 The electronic state is 1-A.
 Alpha  occ. eigenvalues --  -19.62203 -10.57944 -10.57355 -10.52191  -1.16027
 Alpha  occ. eigenvalues --   -0.86132  -0.76608  -0.69404  -0.56380  -0.56068
 Alpha  occ. eigenvalues --   -0.52858  -0.48993  -0.44916  -0.42469  -0.41737
 Alpha  occ. eigenvalues --   -0.38934  -0.33087
 Alpha virt. eigenvalues --    0.01886   0.03050   0.04216   0.04357   0.05576
 Alpha virt. eigenvalues --    0.07100   0.07353   0.08626   0.09775   0.09970
 Alpha virt. eigenvalues --    0.13210   0.14348   0.18373   0.19233   0.19538

 Mulliken charges:
               1
     1  O   -0.166854
     2  C   -0.204763
     3  C   -0.406946
     4  C   -0.250471
     5  H    0.133496
     6  H    0.133463
     7  H    0.141364
     8  H    0.125857
     9  H    0.141358
    10  H    0.112715
    11  H    0.112705
    12  H    0.128076
 Sum of Mulliken charges =  -0.00000

 Dipole moment (field-independent basis, Debye):
    X=             -0.1635    Y=              1.2405    Z=             -0.0006  Tot=              1.2512
 Quadrupole moment (field-independent basis, Debye-Ang):
   XX=            -24.0376   YY=            -27.7274   ZZ=            -26.7052
   XY=              0.0179   XZ=              0.0009   YZ=              0.0009

 Normal termination of Gaussian 16 at Fri Mar 29 09:58:04 2019.
