 Gaussian 16, Revision A.03,
 Gaussian 16:  EM64L-G16RevA.03 25-Dec-2016

 ----------------------------------------------
 #p m062x/6-311+g(2df,2p) Opt=(CalcFC,ModRedun)
 ----------------------------------------------

 ----------------------------------------
 Gaussian Input Prepared from Scan Object
 ----------------------------------------
 Symbolic Z-matrix:
 Charge =  0 Multiplicity = 1

 SCF Done:  E(RM062X) =  -194.315562323     A.U. after   10 cycles

  Exact polarizability:   0.000   0.000   0.000   0.000   0.000   0.000
 Approx polarizability:  48.439   0.777  48.929  -0.000   0.000  46.114

 Optimization completed.
    -- Stationary point found.
 SCF Done:  E(RM062X) =  -194.314070360     A.U. after    9 cycles
 SCF Done:  E(RM062X) =  -194.315267613     A.U. after    9 cycles
 SCF Done:  E(RM062X) =  -194.315284565     A.U. after    8 cycles
 Optimization completed.
 SCF Done:  E(RM062X) =  -194.313252948     A.U. after    9 cycles
 SCF Done:  E(RM062X) =  -194.314480975     A.U. after    9 cycles
 SCF Done:  E(RM062X) =  -194.314504408     A.U. after    8 cycles
 SCF Done:  E(RM062X) =  -194.312045478     A.U. after    9 cycles
 SCF Done:  E(RM062X) =  -194.313355431     A.U. after    9 cycles
 SCF Done:  E(RM062X) =  -194.313388575     A.U. after    8 cycles
 SCF Done:  E(RM062X) =  -194.313370019     A.U. after    8 cycles
 SCF Done:  E(RM062X) =  -194.313088006     A.U. after    9 cycles
 SCF Done:  E(RM062X) =  -194.314483728     A.U. after    9 cycles
 SCF Done:  E(RM062X) =  -194.314496150     A.U. after    8 cycles
 SCF Done:  E(RM062X) =  -194.313986819     A.U. after    9 cycles
 SCF Done:  E(RM062X) =  -194.315273474     A.U. after    9 cycles
 SCF Done:  E(RM062X) =  -194.315282970     A.U. after    8 cycles
    -- Stationary point found.
 SCF Done:  E(RM062X) =  -194.314332499     A.U. after    9 cycles
 SCF Done:  E(RM062X) =  -194.315552112     A.U. after    9 cycles
 SCF Done:  E(RM062X) =  -194.315563984     A.U. after    8 cycles
 Optimization completed.
    -- Stationary point found.

                         Standard orientation:
 ---------------------------------------------------------------------
 Center     Atomic      Atomic             Coordinates (Angstroms)
 Number     Number       Type             X           Y           Z
 ---------------------------------------------------------------------
      1          8           0       -0.503200   -0.498512   -0.000018
      2          6           0        0.487840    0.500614   -0.000001
      3          6           0        1.844902   -0.165097    0.000027
      4          6           0       -1.800723    0.032950    0.000030
      5          1           0        0.368740    1.140369    0.884281
      6          1           0        0.368767    1.140097   -0.884508
      7          1           0        1.957159   -0.791893    0.883229
      8          1           0        2.636855    0.582808   -0.000186
      9          1           0        1.956511   -0.792064   -0.883128
     10          1           0       -1.977292    0.648780    0.889093
     11          1           0       -1.977335    0.648839   -0.888982
     12          1           0       -2.499923   -0.799638    0.000013
 ---------------------------------------------------------------------

 The electronic state is 1-A.
 Alpha  occ. eigenvalues --  -19.62203 -10.57943 -10.57356 -10.52191  -1.16026
 Alpha  occ. eigenvalues --   -0.86133  -0.76609  -0.69402  -0.56381  -0.56068
 Alpha  occ. eigenvalues --   -0.52857  -0.48994  -0.44915  -0.42472  -0.41737
 Alpha  occ. eigenvalues --   -0.38931  -0.33087
 Alpha virt. eigenvalues --    0.01886   0.03050   0.04217   0.04357   0.05576
 Alpha virt. eigenvalues --    0.07100   0.07353   0.08627   0.09774   0.09970
 Alpha virt. eigenvalues --    0.13211   0.14349   0.18373   0.19233   0.19537

 Mulliken charges:
               1
     1  O   -0.166881
     2  C   -0.204798
     3  C   -0.406883
     4  C   -0.250458
     5  H    0.133460
     6  H    0.133479
     7  H    0.141350
     8  H    0.125870
     9  H    0.141357
    10  H    0.112715
    11  H    0.112712
    12  H    0.128077
 Sum of Mulliken charges =  -0.00000

 Dipole moment (field-independent basis, Debye):
    X=             -0.1636    Y=              1.2403    Z=              0.0001  Tot=              1.2511
 Quadrupole moment (field-independent basis, Debye-Ang):
   XX=            -24.0359   YY=            -27.7285   ZZ=            -26.7050
   XY=              0.0186   XZ=              0.0005   YZ=              0.0001

 Normal termination of Gaussian 16 at Tue Apr 23 22:36:13 2019.
