 Gaussian 16, Revision A.03,
 Gaussian 16:  EM64L-G16RevA.03 25-Dec-2016

 ----------------------------------------------
 #p m062x/6-311+g(2df,2p) Opt=(CalcFC,ModRedun)
 ----------------------------------------------

 ----------------------------------------
 Gaussian Input Prepared from Scan Object
 ----------------------------------------
 Symbolic Z-matrix:
 Charge =  0 Multiplicity = 1

 SCF Done:  E(RM062X) =  -194.315562323     A.U. after   10 cycles

  Exact polarizability:   0.000   0.000   0.000   0.000   0.000   0.000
 Approx polarizability:  48.439   0.777  48.929  -0.000  -0.000  46.114

 Optimization completed.
    -- Stationary point found.
 SCF Done:  E(RM062X) =  -194.302387855     A.U. after   10 cycles
 SCF Done:  E(RM062X) =  -194.311118349     A.U. after   10 cycles
 SCF Done:  E(RM062X) =  -194.313366777     A.U. after   10 cycles
 SCF Done:  E(RM062X) =  -194.313385675     A.U. after    8 cycles
 Optimization completed.
 SCF Done:  E(RM062X) =  -194.296938611     A.U. after   10 cycles
 SCF Done:  E(RM062X) =  -194.306641288     A.U. after   10 cycles
 SCF Done:  E(RM062X) =  -194.310762228     A.U. after   10 cycles
 SCF Done:  E(RM062X) =  -194.310823961     A.U. after    8 cycles
 SCF Done:  E(RM062X) =  -194.310825245     A.U. after    7 cycles
 SCF Done:  E(RM062X) =  -194.297947748     A.U. after   11 cycles
 SCF Done:  E(RM062X) =  -194.309298489     A.U. after   10 cycles
 SCF Done:  E(RM062X) =  -194.313359258     A.U. after   10 cycles
 SCF Done:  E(RM062X) =  -194.313402680     A.U. after    8 cycles
 SCF Done:  E(RM062X) =  -194.313404657     A.U. after    6 cycles
    -- Stationary point found.
 SCF Done:  E(RM062X) =  -194.303921042     A.U. after   10 cycles
 SCF Done:  E(RM062X) =  -194.313441331     A.U. after   10 cycles
 SCF Done:  E(RM062X) =  -194.315534936     A.U. after   10 cycles
 SCF Done:  E(RM062X) =  -194.315563532     A.U. after    8 cycles
 SCF Done:  E(RM062X) =  -194.315564009     A.U. after    6 cycles
 Optimization completed.
    -- Stationary point found.

                         Standard orientation:
 ---------------------------------------------------------------------
 Center     Atomic      Atomic             Coordinates (Angstroms)
 Number     Number       Type             X           Y           Z
 ---------------------------------------------------------------------
      1          8           0       -0.503236   -0.498537    0.000082
      2          6           0        0.487832    0.500689    0.000026
      3          6           0        1.844948   -0.165153   -0.000035
      4          6           0       -1.800756    0.032927   -0.000034
      5          1           0        0.368880    1.140519    0.884274
      6          1           0        0.368656    1.140263   -0.884358
      7          1           0        1.957148   -0.791803    0.883244
      8          1           0        2.636837    0.582825   -0.000257
      9          1           0        1.956876   -0.792182   -0.883116
     10          1           0       -1.977382    0.648915    0.888908
     11          1           0       -1.977333    0.648656   -0.889163
     12          1           0       -2.499942   -0.799673    0.000069
 ---------------------------------------------------------------------

 The electronic state is 1-A.
 Alpha  occ. eigenvalues --  -19.62203 -10.57944 -10.57356 -10.52192  -1.16023
 Alpha  occ. eigenvalues --   -0.86131  -0.76608  -0.69404  -0.56379  -0.56068
 Alpha  occ. eigenvalues --   -0.52856  -0.48994  -0.44915  -0.42470  -0.41738
 Alpha  occ. eigenvalues --   -0.38932  -0.33087
 Alpha virt. eigenvalues --    0.01886   0.03050   0.04216   0.04357   0.05576
 Alpha virt. eigenvalues --    0.07100   0.07353   0.08626   0.09775   0.09970
 Alpha virt. eigenvalues --    0.13210   0.14348   0.18373   0.19232   0.19538

 Mulliken charges:
               1
     1  O   -0.166911
     2  C   -0.204795
     3  C   -0.406915
     4  C   -0.250453
     5  H    0.133499
     6  H    0.133493
     7  H    0.141367
     8  H    0.125861
     9  H    0.141357
    10  H    0.112710
    11  H    0.112715
    12  H    0.128073
 Sum of Mulliken charges =  -0.00000

 Dipole moment (field-independent basis, Debye):
    X=             -0.1634    Y=              1.2406    Z=             -0.0001  Tot=              1.2513
 Quadrupole moment (field-independent basis, Debye-Ang):
   XX=            -24.0361   YY=            -27.7277   ZZ=            -26.7053
   XY=              0.0182   XZ=              0.0003   YZ=              0.0004

 Normal termination of Gaussian 16 at Fri Mar 29 10:08:40 2019.
