 Gaussian 16, Revision A.03,
 Gaussian 16:  EM64L-G16RevA.03 25-Dec-2016

 ----------------------------------------------------------------------
 #p m062x/6-311+g(2df,2p) opt=(calcfc,verytight,gdiis,maxcycles=900) fr
 eq iop(7/33=1,2/16=3)
 ----------------------------------------------------------------------

 ------------------------------
 Gaussian input prepared by ASE
 ------------------------------
 Symbolic Z-matrix:
 Charge =  0 Multiplicity = 1

 SCF Done:  E(RM062X) =  -194.299727969     A.U. after   11 cycles
 SCF Done:  E(RM062X) =  -194.306146923     A.U. after   10 cycles
 SCF Done:  E(RM062X) =  -194.306751480     A.U. after   10 cycles
 SCF Done:  E(RM062X) =  -194.309460738     A.U. after   10 cycles
 SCF Done:  E(RM062X) =  -194.275068050     A.U. after   12 cycles
 SCF Done:  E(RM062X) =  -194.308482183     A.U. after   11 cycles
 SCF Done:  E(RM062X) =  -194.311089192     A.U. after   10 cycles
 SCF Done:  E(RM062X) =  -194.311666636     A.U. after    9 cycles
 SCF Done:  E(RM062X) =  -194.312632238     A.U. after   10 cycles
 SCF Done:  E(RM062X) =  -194.309292171     A.U. after   11 cycles
 SCF Done:  E(RM062X) =  -194.313665918     A.U. after    9 cycles
 SCF Done:  E(RM062X) =  -194.313673458     A.U. after    7 cycles
 SCF Done:  E(RM062X) =  -194.313675588     A.U. after    7 cycles
 SCF Done:  E(RM062X) =  -194.313676861     A.U. after    7 cycles
 SCF Done:  E(RM062X) =  -194.313677119     A.U. after    7 cycles
 SCF Done:  E(RM062X) =  -194.313677348     A.U. after    7 cycles
 SCF Done:  E(RM062X) =  -194.313677389     A.U. after    5 cycles
 SCF Done:  E(RM062X) =  -194.313677391     A.U. after    5 cycles
 SCF Done:  E(RM062X) =  -194.313677391     A.U. after    2 cycles
 Optimization completed.
    -- Stationary point found.
 Normal termination of Gaussian 16 at Tue Apr  9 01:32:31 2019.

 ----------------------------------------------------------------------
 #P Geom=AllCheck Guess=TCheck SCRF=Check Test GenChk RM062X/6-311+G(2d
 f,2p) Freq
 ----------------------------------------------------------------------

 Structure from the checkpoint file:  "/scratch/underkoffler.c/gaussian_scratch/Gau-9691.chk"
 ------------------------------
 Gaussian input prepared by ASE
 ------------------------------
 Charge =  0 Multiplicity = 1

                         Standard orientation:
 ---------------------------------------------------------------------
 Center     Atomic      Atomic             Coordinates (Angstroms)
 Number     Number       Type             X           Y           Z
 ---------------------------------------------------------------------
      1          8           0        0.664371   -0.566785   -0.378305
      2          6           0       -0.597755   -0.637806    0.245261
      3          6           0       -1.506693    0.534244   -0.089701
      4          6           0        1.483515    0.462203    0.112117
      5          1           0       -1.043896   -1.568034   -0.104471
      6          1           0       -0.466458   -0.717541    1.332206
      7          1           0       -1.592719    0.645395   -1.170212
      8          1           0       -1.134514    1.469360    0.326871
      9          1           0       -2.501401    0.361659    0.320714
     10          1           0        1.117738    1.452388   -0.174023
     11          1           0        2.473122    0.320304   -0.315657
     12          1           0        1.558759    0.418904    1.204954
 ---------------------------------------------------------------------

 SCF Done:  E(RM062X) =  -194.313677391     A.U. after    1 cycles

 The electronic state is 1-A.
 Alpha  occ. eigenvalues --  -19.62041 -10.57928 -10.57286 -10.52469  -1.15738
 Alpha  occ. eigenvalues --   -0.85666  -0.78095  -0.68585  -0.56220  -0.56154
 Alpha  occ. eigenvalues --   -0.52756  -0.48040  -0.46142  -0.44020  -0.41801
 Alpha  occ. eigenvalues --   -0.37876  -0.32901
 Alpha virt. eigenvalues --    0.01655   0.03267   0.03566   0.04385   0.06415
 Alpha virt. eigenvalues --    0.07081   0.07439   0.08087   0.08809   0.10808
 Alpha virt. eigenvalues --    0.11166   0.13663   0.17448   0.18604   0.19830

 Mulliken charges:
               1
     1  O   -0.175376
     2  C   -0.224923
     3  C   -0.376550
     4  C   -0.288268
     5  H    0.144002
     6  H    0.138492
     7  H    0.151750
     8  H    0.129132
     9  H    0.130774
    10  H    0.123257
    11  H    0.134440
    12  H    0.113270
 Sum of Mulliken charges =  -0.00000

 Dipole moment (field-independent basis, Debye):
    X=             -0.5125    Y=              0.8915    Z=              0.9367  Tot=              1.3910
 Quadrupole moment (field-independent basis, Debye-Ang):
   XX=            -25.0433   YY=            -27.2345   ZZ=            -27.3372
   XY=              1.9431   XZ=              0.5948   YZ=             -0.6787

  Exact polarizability:  48.282   1.216  40.978   0.027  -0.607  39.351
 Approx polarizability:  49.365   1.345  47.014  -0.593   0.333  47.242

                      1                      2                      3
                      A                      A                      A
 Frequencies --     93.0589               196.1220               281.2633
 Red. masses --      1.5465                 1.1074                 1.3257
 Frc consts  --      0.0079                 0.0251                 0.0618
 IR Inten    --      2.4047                 1.4752                 1.8761

                      4                      5                      6
                      A                      A                      A
 Frequencies --    380.1637               475.9587               805.9500
 Red. masses --      2.4089                 2.3575                 1.1052
 Frc consts  --      0.2051                 0.3147                 0.4230
 IR Inten    --      4.7568                 5.0409                 1.6850

                      7                      8                      9
                      A                      A                      A
 Frequencies --    875.1624              1025.6806              1099.0271
 Red. masses --      2.2829                 2.7966                 2.1529
 Frc consts  --      1.0302                 1.7334                 1.5321
 IR Inten    --      8.9565                25.6798                10.8649

                     10                     11                     12
                      A                      A                      A
 Frequencies --   1150.9586              1185.9589              1228.2310
 Red. masses --      1.5323                 1.2967                 2.7197
 Frc consts  --      1.1959                 1.0745                 2.4173
 IR Inten    --     17.0112                 3.3438                82.7527

                     13                     14                     15
                      A                      A                      A
 Frequencies --   1252.2488              1344.0679              1396.4427
 Red. masses --      2.1253                 1.1486                 1.2240
 Frc consts  --      1.9636                 1.2226                 1.4063
 IR Inten    --     62.8572                11.2648                 1.0674

                     16                     17                     18
                      A                      A                      A
 Frequencies --   1420.9818              1481.2090              1492.0764
 Red. masses --      1.3136                 1.1379                 1.0424
 Frc consts  --      1.5627                 1.4709                 1.3673
 IR Inten    --     25.7006                 1.5424                 8.1984

                     19                     20                     21
                      A                      A                      A
 Frequencies --   1496.5931              1504.3162              1521.0236
 Red. masses --      1.0537                 1.0575                 1.0637
 Frc consts  --      1.3905                 1.4100                 1.4499
 IR Inten    --      0.5663                 6.3094                 0.9480

                     22                     23                     24
                      A                      A                      A
 Frequencies --   1523.4488              3008.4184              3016.2432
 Red. masses --      1.0792                 1.0676                 1.0432
 Frc consts  --      1.4758                 5.6929                 5.5920
 IR Inten    --      9.6480                46.1781                53.8238

                     25                     26                     27
                      A                      A                      A
 Frequencies --   3066.7687              3073.9534              3109.4621
 Red. masses --      1.0550                 1.0780                 1.0929
 Frc consts  --      5.8458                 6.0015                 6.2256
 IR Inten    --      5.7421                47.3987                12.2019

                     28                     29                     30
                      A                      A                      A
 Frequencies --   3140.6087              3146.0045              3148.5461
 Red. masses --      1.1010                 1.1000                 1.1009
 Frc consts  --      6.3984                 6.4144                 6.4298
 IR Inten    --     29.0882                20.5305                24.9879

 - Thermochemistry -
 -------------------
 Temperature   298.150 Kelvin.  Pressure   1.00000 Atm.
 Atom     1 has atomic number  8 and mass  15.99491

 Molecular mass:    60.05751 amu.
 Principal axes and moments of inertia in atomic units:
                           1         2         3
     Eigenvalues --   115.03412 337.52106 394.24435
           X            0.99967   0.02265   0.01244
           Y           -0.02207   0.99873  -0.04532
           Z           -0.01345   0.04503   0.99890
 This molecule is an asymmetric top.
 Rotational symmetry number  1.
 Rotational temperatures (Kelvin)      0.75294     0.25662     0.21970
 Rotational constants (GHZ):          15.68875     5.34705     4.57772
 Zero-point vibrational energy     286744.6 (Joules/Mol)
                                   68.53360 (Kcal/Mol)
 Warning -- explicit consideration of   5 degrees of freedom as
           vibrations may cause significant error
 Vibrational temperatures:    133.89   282.18   404.68   546.97   684.80
          (Kelvin)           1159.58  1259.16  1475.73  1581.25  1655.97
                             1706.33  1767.15  1801.71  1933.81  2009.17
                             2044.48  2131.13  2146.77  2153.26  2164.38
                             2188.41  2191.90  4328.44  4339.70  4412.40
                             4422.73  4473.82  4518.64  4526.40  4530.06

 Zero-point correction=                           0.109215 (Hartree/Particle)
 Thermal correction to Energy=                    0.114692
 Thermal correction to Enthalpy=                  0.115637
 Thermal correction to Gibbs Free Energy=         0.081292
 Sum of electronic and zero-point Energies=           -194.204462
 Sum of electronic and thermal Energies=              -194.198985
 Sum of electronic and thermal Enthalpies=            -194.198041
 Sum of electronic and thermal Free Energies=         -194.232385

                     E (Thermal)             CV                S
                      KCal/Mol        Cal/Mol-Kelvin    Cal/Mol-Kelvin
 Total                   71.971             17.685             72.284
 Electronic               0.000              0.000              0.000
 Translational            0.889              2.981             38.198
 Rotational               0.889              2.981             24.241
 Vibrational             70.193             11.724              9.845
 Vibration     1          0.602              1.954              3.595
 Vibration     2          0.636              1.845              2.169
 Vibration     3          0.681              1.708              1.526
 Vibration     4          0.750              1.512              1.039
 Vibration     5          0.833              1.303              0.721

 Optimization completed.
    -- Stationary point found.
 Normal termination of Gaussian 16 at Tue Apr  9 01:34:28 2019.
