 Gaussian 16, Revision A.03,
 Gaussian 16:  EM64L-G16RevA.03 25-Dec-2016

 ----------------------------------------------
 #p m062x/6-311+g(2df,2p) Opt=(CalcFC,ModRedun)
 ----------------------------------------------

 ----------------------------------------
 Gaussian Input Prepared from Scan Object
 ----------------------------------------
 Symbolic Z-matrix:
 Charge =  0 Multiplicity = 2

 SCF Done:  E(UM062X) =  -193.643129622     A.U. after   13 cycles

  Exact polarizability:   0.000   0.000   0.000   0.000   0.000   0.000
 Approx polarizability:  48.712   0.549  46.239   0.256   0.142  43.452

 Optimization completed.
    -- Stationary point found.
 SCF Done:  E(UM062X) =  -193.641947193     A.U. after   11 cycles
 SCF Done:  E(UM062X) =  -193.642882100     A.U. after   10 cycles
 SCF Done:  E(UM062X) =  -193.642883395     A.U. after    9 cycles
 SCF Done:  E(UM062X) =  -193.642883072     A.U. after   10 cycles
 SCF Done:  E(UM062X) =  -193.642883543     A.U. after    9 cycles
 Optimization completed.
 SCF Done:  E(UM062X) =  -193.641233739     A.U. after   11 cycles
 SCF Done:  E(UM062X) =  -193.642195024     A.U. after   10 cycles
 SCF Done:  E(UM062X) =  -193.642197841     A.U. after    8 cycles
 SCF Done:  E(UM062X) =  -193.640221507     A.U. after   11 cycles
 SCF Done:  E(UM062X) =  -193.641255226     A.U. after    8 cycles
 SCF Done:  E(UM062X) =  -193.641128832     A.U. after   10 cycles
 SCF Done:  E(UM062X) =  -193.642201843     A.U. after   10 cycles
 SCF Done:  E(UM062X) =  -193.642203711     A.U. after    8 cycles
 SCF Done:  E(UM062X) =  -193.641893237     A.U. after   10 cycles
 SCF Done:  E(UM062X) =  -193.642878674     A.U. after   10 cycles
 SCF Done:  E(UM062X) =  -193.642882558     A.U. after    9 cycles
    -- Stationary point found.
 SCF Done:  E(UM062X) =  -193.642186354     A.U. after   10 cycles
 SCF Done:  E(UM062X) =  -193.643127863     A.U. after   10 cycles
 SCF Done:  E(UM062X) =  -193.643129618     A.U. after    9 cycles
 Optimization completed.
    -- Stationary point found.

                         Standard orientation:
 ---------------------------------------------------------------------
 Center     Atomic      Atomic             Coordinates (Angstroms)
 Number     Number       Type             X           Y           Z
 ---------------------------------------------------------------------
      1          8           0        0.449228   -0.505718   -0.051853
      2          6           0       -0.557444    0.472431    0.022845
      3          6           0        1.736926    0.047163    0.009730
      4          6           0       -1.883629   -0.177663   -0.014682
      5          1           0       -0.430680    1.058502    0.951036
      6          1           0       -0.450994    1.190775   -0.805033
      7          1           0        1.892218    0.586888    0.950616
      8          1           0        2.449737   -0.770998   -0.053286
      9          1           0        1.911506    0.739286   -0.821504
     10          1           0       -1.965478   -1.225801    0.224362
     11          1           0       -2.775250    0.415506   -0.138726
 ---------------------------------------------------------------------

 The electronic state is 2-A.
 Alpha  occ. eigenvalues --  -19.62685 -10.58861 -10.57680 -10.54131  -1.16580
 Alpha  occ. eigenvalues --   -0.86554  -0.76574  -0.69355  -0.57124  -0.56361
 Alpha  occ. eigenvalues --   -0.53731  -0.48362  -0.46505  -0.44399  -0.39844
 Alpha  occ. eigenvalues --   -0.34039  -0.26302
 Alpha virt. eigenvalues --    0.01990   0.03410   0.04254   0.04800   0.05530
 Alpha virt. eigenvalues --    0.06661   0.08277   0.08834   0.11074   0.11265
 Alpha virt. eigenvalues --    0.13155   0.15104   0.18922   0.19132   0.21237

  Beta  occ. eigenvalues --  -19.62680 -10.58929 -10.57680 -10.53437  -1.16536
  Beta  occ. eigenvalues --   -0.85001  -0.75544  -0.67229  -0.56710  -0.55762
  Beta  occ. eigenvalues --   -0.53332  -0.47381  -0.45583  -0.43722  -0.39653
  Beta  occ. eigenvalues --   -0.33614
  Beta virt. eigenvalues --   -0.02569   0.01714   0.03030   0.04054   0.04785
  Beta virt. eigenvalues --    0.05599   0.06785   0.08408   0.08612   0.09620
  Beta virt. eigenvalues --    0.12221   0.13209   0.14218   0.18832   0.19413

 Mulliken charges and spin densities:
               1          2
     1  O   -0.166409   0.002654
     2  C   -0.206630  -0.040295
     3  C   -0.249462   0.004627
     4  C   -0.339820   1.039972
     5  H    0.130252   0.044549
     6  H    0.135471   0.028113
     7  H    0.112365  -0.000759
     8  H    0.129448  -0.000346
     9  H    0.112439  -0.000413
    10  H    0.178241  -0.037887
    11  H    0.164105  -0.040214
 Sum of Mulliken charges =  -0.00000   1.00000

 Dipole moment (field-independent basis, Debye):
    X=              0.3826    Y=              1.3655    Z=              0.2233  Tot=              1.4356
 Quadrupole moment (field-independent basis, Debye-Ang):
   XX=            -23.2857   YY=            -26.5038   ZZ=            -27.1999
   XY=             -0.2122   XZ=             -0.0898   YZ=             -0.4766

 Normal termination of Gaussian 16 at Mon Mar 11 20:33:41 2019.
