 Gaussian 16, Revision A.03,
 Gaussian 16:  EM64L-G16RevA.03 25-Dec-2016

 ----------------------------------------------
 #p m062x/6-311+g(2df,2p) Opt=(CalcFC,ModRedun)
 ----------------------------------------------

 ----------------------------------------
 Gaussian Input Prepared from Scan Object
 ----------------------------------------
 Symbolic Z-matrix:
 Charge =  0 Multiplicity = 2

 SCF Done:  E(UM062X) =  -193.643407157     A.U. after   13 cycles

  Exact polarizability:   0.000   0.000   0.000   0.000   0.000   0.000
 Approx polarizability:  47.750  -0.226  45.823   0.628   0.013  45.253

 Optimization completed.
    -- Stationary point found.
 SCF Done:  E(UM062X) =  -193.642105778     A.U. after   11 cycles
 SCF Done:  E(UM062X) =  -193.643016691     A.U. after   10 cycles
 SCF Done:  E(UM062X) =  -193.643018051     A.U. after    8 cycles
 Optimization completed.
 SCF Done:  E(UM062X) =  -193.640923248     A.U. after   11 cycles
 SCF Done:  E(UM062X) =  -193.641880678     A.U. after   10 cycles
 SCF Done:  E(UM062X) =  -193.641884049     A.U. after    9 cycles
 SCF Done:  E(UM062X) =  -193.641884140     A.U. after    7 cycles
 SCF Done:  E(UM062X) =  -193.639118396     A.U. after   11 cycles
 SCF Done:  E(UM062X) =  -193.640211774     A.U. after   11 cycles
 SCF Done:  E(UM062X) =  -193.640889006     A.U. after   11 cycles
 SCF Done:  E(UM062X) =  -193.642080607     A.U. after   11 cycles
 SCF Done:  E(UM062X) =  -193.642082188     A.U. after    9 cycles
 SCF Done:  E(UM062X) =  -193.642008278     A.U. after   11 cycles
 SCF Done:  E(UM062X) =  -193.643043744     A.U. after   11 cycles
 SCF Done:  E(UM062X) =  -193.643046691     A.U. after    9 cycles
    -- Stationary point found.
 SCF Done:  E(UM062X) =  -193.642460307     A.U. after   11 cycles
 SCF Done:  E(UM062X) =  -193.643405639     A.U. after   11 cycles
 SCF Done:  E(UM062X) =  -193.643407124     A.U. after    9 cycles
 SCF Done:  E(UM062X) =  -193.643407157     A.U. after    7 cycles
 Optimization completed.
    -- Stationary point found.

                         Standard orientation:
 ---------------------------------------------------------------------
 Center     Atomic      Atomic             Coordinates (Angstroms)
 Number     Number       Type             X           Y           Z
 ---------------------------------------------------------------------
      1          8           0       -0.608630   -0.541167   -0.399025
      2          6           0        0.657680   -0.604651    0.217675
      3          6           0       -1.434239    0.457897    0.146382
      4          6           0        1.512934    0.572101   -0.084671
      5          1           0        0.544534   -0.727245    1.303278
      6          1           0        1.116242   -1.525296   -0.161023
      7          1           0       -1.006929    1.455658    0.008434
      8          1           0       -2.390559    0.404207   -0.367638
      9          1           0       -1.592751    0.292189    1.218034
     10          1           0        1.478910    1.005780   -1.073391
     11          1           0        2.301336    0.871968    0.588192
 ---------------------------------------------------------------------

 The electronic state is 2-A.
 Alpha  occ. eigenvalues --  -19.62410 -10.58716 -10.57306 -10.54625  -1.16145
 Alpha  occ. eigenvalues --   -0.86011  -0.77752  -0.68546  -0.57047  -0.55981
 Alpha  occ. eigenvalues --   -0.53589  -0.48850  -0.45960  -0.44925  -0.39150
 Alpha  occ. eigenvalues --   -0.33711  -0.27290
 Alpha virt. eigenvalues --    0.02134   0.03548   0.03731   0.04611   0.06456
 Alpha virt. eigenvalues --    0.07220   0.07344   0.08658   0.09768   0.11165
 Alpha virt. eigenvalues --    0.11909   0.14799   0.17734   0.19167   0.20940

  Beta  occ. eigenvalues --  -19.62384 -10.58780 -10.57295 -10.53943  -1.16018
  Beta  occ. eigenvalues --   -0.84434  -0.76350  -0.66781  -0.56554  -0.55224
  Beta  occ. eigenvalues --   -0.53167  -0.47972  -0.45257  -0.44174  -0.38804
  Beta  occ. eigenvalues --   -0.33463
  Beta virt. eigenvalues --   -0.03155   0.01560   0.03472   0.03571   0.04326
  Beta virt. eigenvalues --    0.06552   0.07171   0.07355   0.08418   0.09877
  Beta virt. eigenvalues --    0.10899   0.11936   0.13892   0.17825   0.19347

 Mulliken charges and spin densities:
               1          2
     1  O   -0.174856   0.000047
     2  C   -0.186598  -0.034026
     3  C   -0.277520   0.028966
     4  C   -0.354793   1.054018
     5  H    0.142702   0.010674
     6  H    0.139590   0.042995
     7  H    0.123286  -0.013819
     8  H    0.130297  -0.000276
     9  H    0.112692  -0.002225
    10  H    0.180441  -0.048081
    11  H    0.164759  -0.038273
 Sum of Mulliken charges =  -0.00000   1.00000

 Dipole moment (field-independent basis, Debye):
    X=              0.4713    Y=              0.6913    Z=              0.9595  Tot=              1.2731
 Quadrupole moment (field-independent basis, Debye-Ang):
   XX=            -24.4870   YY=            -26.8519   ZZ=            -26.3795
   XY=             -1.4885   XZ=             -0.2787   YZ=             -1.1166

 Normal termination of Gaussian 16 at Tue Apr 23 22:41:11 2019.
