 Gaussian 16, Revision A.03,
 Gaussian 16:  EM64L-G16RevA.03 25-Dec-2016

 ----------------------------------------------
 #p m062x/6-311+g(2df,2p) Opt=(CalcFC,ModRedun)
 ----------------------------------------------

 ----------------------------------------
 Gaussian Input Prepared from Scan Object
 ----------------------------------------
 Symbolic Z-matrix:
 Charge =  0 Multiplicity = 2

 SCF Done:  E(UM062X) =  -193.643407157     A.U. after   13 cycles

  Exact polarizability:   0.000   0.000   0.000   0.000   0.000   0.000
 Approx polarizability:  47.750  -0.226  45.823   0.628   0.013  45.253

 Optimization completed.
    -- Stationary point found.
 SCF Done:  E(UM062X) =  -193.642278646     A.U. after   10 cycles
 SCF Done:  E(UM062X) =  -193.643206686     A.U. after   11 cycles
 SCF Done:  E(UM062X) =  -193.643209071     A.U. after    9 cycles
 Optimization completed.
 SCF Done:  E(UM062X) =  -193.641689373     A.U. after   10 cycles
 SCF Done:  E(UM062X) =  -193.642651737     A.U. after   11 cycles
 SCF Done:  E(UM062X) =  -193.642655114     A.U. after    9 cycles
 SCF Done:  E(UM062X) =  -193.642655145     A.U. after    7 cycles
 SCF Done:  E(UM062X) =  -193.640820456     A.U. after   10 cycles
 SCF Done:  E(UM062X) =  -193.641851170     A.U. after   10 cycles
 SCF Done:  E(UM062X) =  -193.641870021     A.U. after    7 cycles
 SCF Done:  E(UM062X) =  -193.641634123     A.U. after   10 cycles
 SCF Done:  E(UM062X) =  -193.642664964     A.U. after   10 cycles
 SCF Done:  E(UM062X) =  -193.642665544     A.U. after    9 cycles
 SCF Done:  E(UM062X) =  -193.642261711     A.U. after   10 cycles
 SCF Done:  E(UM062X) =  -193.643215221     A.U. after   10 cycles
 SCF Done:  E(UM062X) =  -193.643216430     A.U. after    9 cycles
    -- Stationary point found.
 SCF Done:  E(UM062X) =  -193.642482789     A.U. after   10 cycles
 SCF Done:  E(UM062X) =  -193.643404449     A.U. after   11 cycles
 SCF Done:  E(UM062X) =  -193.643407144     A.U. after    9 cycles
 Optimization completed.
    -- Stationary point found.

                         Standard orientation:
 ---------------------------------------------------------------------
 Center     Atomic      Atomic             Coordinates (Angstroms)
 Number     Number       Type             X           Y           Z
 ---------------------------------------------------------------------
      1          8           0       -0.608631   -0.541081   -0.399009
      2          6           0        0.657723   -0.604636    0.217517
      3          6           0       -1.434367    0.457824    0.146441
      4          6           0        1.512998    0.572181   -0.084530
      5          1           0        0.544750   -0.727608    1.303107
      6          1           0        1.116243   -1.525160   -0.161545
      7          1           0       -1.007195    1.455648    0.008589
      8          1           0       -2.390657    0.404011   -0.367603
      9          1           0       -1.592886    0.291998    1.218090
     10          1           0        1.478395    1.006566   -1.072921
     11          1           0        2.302275    0.870977    0.587784
 ---------------------------------------------------------------------

 The electronic state is 2-A.
 Alpha  occ. eigenvalues --  -19.62410 -10.58716 -10.57307 -10.54624  -1.16146
 Alpha  occ. eigenvalues --   -0.86012  -0.77752  -0.68545  -0.57048  -0.55981
 Alpha  occ. eigenvalues --   -0.53589  -0.48848  -0.45959  -0.44928  -0.39150
 Alpha  occ. eigenvalues --   -0.33711  -0.27289
 Alpha virt. eigenvalues --    0.02134   0.03547   0.03731   0.04612   0.06456
 Alpha virt. eigenvalues --    0.07220   0.07343   0.08659   0.09769   0.11165
 Alpha virt. eigenvalues --    0.11909   0.14800   0.17732   0.19168   0.20940

  Beta  occ. eigenvalues --  -19.62384 -10.58780 -10.57296 -10.53942  -1.16020
  Beta  occ. eigenvalues --   -0.84436  -0.76350  -0.66781  -0.56555  -0.55224
  Beta  occ. eigenvalues --   -0.53167  -0.47970  -0.45256  -0.44176  -0.38804
  Beta  occ. eigenvalues --   -0.33463
  Beta virt. eigenvalues --   -0.03155   0.01560   0.03472   0.03571   0.04326
  Beta virt. eigenvalues --    0.06552   0.07171   0.07354   0.08417   0.09878
  Beta virt. eigenvalues --    0.10899   0.11935   0.13891   0.17823   0.19348

 Mulliken charges and spin densities:
               1          2
     1  O   -0.174848   0.000026
     2  C   -0.186566  -0.034034
     3  C   -0.277515   0.028940
     4  C   -0.354799   1.053962
     5  H    0.142683   0.010706
     6  H    0.139590   0.043023
     7  H    0.123297  -0.013801
     8  H    0.130294  -0.000274
     9  H    0.112683  -0.002225
    10  H    0.180434  -0.048063
    11  H    0.164747  -0.038261
 Sum of Mulliken charges =  -0.00000   1.00000

 Dipole moment (field-independent basis, Debye):
    X=              0.4714    Y=              0.6906    Z=              0.9591  Tot=              1.2724
 Quadrupole moment (field-independent basis, Debye-Ang):
   XX=            -24.4845   YY=            -26.8522   ZZ=            -26.3809
   XY=             -1.4894   XZ=             -0.2784   YZ=             -1.1178

 Normal termination of Gaussian 16 at Wed Mar 13 15:55:28 2019.
