 Gaussian 16, Revision A.03,
 Gaussian 16:  EM64L-G16RevA.03 25-Dec-2016

 ----------------------------------------------------------------------
 #p m062x/6-311+g(2df,2p) opt=(calcfc,verytight,gdiis,maxcycles=900) fr
 eq iop(7/33=1,2/16=3)
 ----------------------------------------------------------------------

 ------------------------------
 Gaussian input prepared by ASE
 ------------------------------
 Symbolic Z-matrix:
 Charge =  0 Multiplicity = 2

 SCF Done:  E(UM062X) =  -193.639595456     A.U. after   14 cycles
 SCF Done:  E(UM062X) =  -193.642198246     A.U. after   11 cycles
 SCF Done:  E(UM062X) =  -193.643214541     A.U. after   12 cycles
 SCF Done:  E(UM062X) =  -193.643372547     A.U. after   11 cycles
 SCF Done:  E(UM062X) =  -193.643404165     A.U. after   10 cycles
 SCF Done:  E(UM062X) =  -193.643406868     A.U. after    9 cycles
 SCF Done:  E(UM062X) =  -193.643407085     A.U. after    8 cycles
 SCF Done:  E(UM062X) =  -193.643407142     A.U. after    7 cycles
 SCF Done:  E(UM062X) =  -193.643407157     A.U. after    7 cycles
 SCF Done:  E(UM062X) =  -193.643407157     A.U. after    5 cycles
 SCF Done:  E(UM062X) =  -193.643407157     A.U. after    4 cycles
 SCF Done:  E(UM062X) =  -193.643407157     A.U. after    2 cycles
 SCF Done:  E(UM062X) =  -193.643407157     A.U. after    1 cycles
 SCF Done:  E(UM062X) =  -193.643407157     A.U. after    1 cycles
 SCF Done:  E(UM062X) =  -193.643407157     A.U. after    3 cycles
 SCF Done:  E(UM062X) =  -193.643407157     A.U. after    2 cycles
 SCF Done:  E(UM062X) =  -193.643407157     A.U. after    1 cycles
 Optimization completed.
    -- Stationary point found.
 Normal termination of Gaussian 16 at Tue Apr  9 01:39:55 2019.

 ----------------------------------------------------------------------
 #P Geom=AllCheck Guess=TCheck SCRF=Check Test GenChk UM062X/6-311+G(2d
 f,2p) Freq
 ----------------------------------------------------------------------

 Structure from the checkpoint file:  "/scratch/underkoffler.c/gaussian_scratch/Gau-27283.chk"
 ------------------------------
 Gaussian input prepared by ASE
 ------------------------------
 Charge =  0 Multiplicity = 2

                         Standard orientation:
 ---------------------------------------------------------------------
 Center     Atomic      Atomic             Coordinates (Angstroms)
 Number     Number       Type             X           Y           Z
 ---------------------------------------------------------------------
      1          8           0        0.608635   -0.541166   -0.399022
      2          6           0       -0.657674   -0.604651    0.217683
      3          6           0        1.434232    0.457903    0.146376
      4          6           0       -1.512940    0.572093   -0.084674
      5          1           0       -0.544518   -0.727234    1.303284
      6          1           0       -1.116213   -1.525303   -0.161019
      7          1           0        2.390550    0.404215   -0.367648
      8          1           0        1.006919    1.455662    0.008429
      9          1           0        1.592748    0.292200    1.218029
     10          1           0       -2.301312    0.871993    0.588207
     11          1           0       -1.478964    1.005724   -1.073417
 ---------------------------------------------------------------------

 SCF Done:  E(UM062X) =  -193.643407157     A.U. after    1 cycles

 The electronic state is 2-A.
 Alpha  occ. eigenvalues --  -19.62411 -10.58716 -10.57306 -10.54625  -1.16145
 Alpha  occ. eigenvalues --   -0.86011  -0.77752  -0.68546  -0.57047  -0.55981
 Alpha  occ. eigenvalues --   -0.53589  -0.48850  -0.45960  -0.44924  -0.39150
 Alpha  occ. eigenvalues --   -0.33711  -0.27291
 Alpha virt. eigenvalues --    0.02134   0.03548   0.03731   0.04611   0.06456
 Alpha virt. eigenvalues --    0.07220   0.07344   0.08658   0.09768   0.11165
 Alpha virt. eigenvalues --    0.11909   0.14799   0.17734   0.19167   0.20940

  Beta  occ. eigenvalues --  -19.62384 -10.58780 -10.57295 -10.53943  -1.16019
  Beta  occ. eigenvalues --   -0.84434  -0.76350  -0.66781  -0.56554  -0.55224
  Beta  occ. eigenvalues --   -0.53167  -0.47972  -0.45257  -0.44174  -0.38804
  Beta  occ. eigenvalues --   -0.33463
  Beta virt. eigenvalues --   -0.03155   0.01560   0.03472   0.03572   0.04326
  Beta virt. eigenvalues --    0.06552   0.07171   0.07355   0.08418   0.09877
  Beta virt. eigenvalues --    0.10899   0.11936   0.13892   0.17825   0.19347

 Mulliken charges and spin densities:
               1          2
     1  O   -0.174852   0.000048
     2  C   -0.186600  -0.034025
     3  C   -0.277521   0.028967
     4  C   -0.354794   1.054019
     5  H    0.142703   0.010671
     6  H    0.139590   0.042994
     7  H    0.130296  -0.000276
     8  H    0.123285  -0.013820
     9  H    0.112691  -0.002225
    10  H    0.164760  -0.038273
    11  H    0.180442  -0.048081
 Sum of Mulliken charges =  -0.00000   1.00000

 Dipole moment (field-independent basis, Debye):
    X=             -0.4714    Y=              0.6913    Z=              0.9595  Tot=              1.2731
 Quadrupole moment (field-independent basis, Debye-Ang):
   XX=            -24.4871   YY=            -26.8519   ZZ=            -26.3794
   XY=              1.4885   XZ=              0.2787   YZ=             -1.1165

  Exact polarizability:  47.393   0.306  40.633   0.106  -0.709  38.298
 Approx polarizability:  47.750   0.226  45.823  -0.628   0.013  45.253

                      1                      2                      3
                      A                      A                      A
 Frequencies --    131.8021               186.1269               223.6132
 Red. masses --      1.4420                 1.0352                 1.5022
 Frc consts  --      0.0148                 0.0211                 0.0443
 IR Inten    --      2.3466                 2.4643                 4.0360

                      4                      5                      6
                      A                      A                      A
 Frequencies --    372.5730               454.2187               523.5315
 Red. masses --      2.2923                 1.5437                 1.7731
 Frc consts  --      0.1875                 0.1877                 0.2863
 IR Inten    --      6.4325                22.7452                25.8240

                      7                      8                      9
                      A                      A                      A
 Frequencies --    851.3115               943.6617              1051.6756
 Red. masses --      1.5381                 2.8113                 2.5259
 Frc consts  --      0.6568                 1.4750                 1.6460
 IR Inten    --      4.5101                14.8998                18.9534

                     10                     11                     12
                      A                      A                      A
 Frequencies --   1121.3487              1166.9677              1186.4551
 Red. masses --      1.9436                 2.0018                 1.2931
 Frc consts  --      1.4399                 1.6062                 1.0725
 IR Inten    --      3.2996                67.4490                 3.4591

                     13                     14                     15
                      A                      A                      A
 Frequencies --   1241.0551              1313.3979              1394.1576
 Red. masses --      2.3682                 1.2867                 1.2407
 Frc consts  --      2.1491                 1.3077                 1.4208
 IR Inten    --     77.6966                17.6635                 9.9415

                     16                     17                     18
                      A                      A                      A
 Frequencies --   1456.3504              1477.8686              1491.5276
 Red. masses --      1.2269                 1.1159                 1.1270
 Frc consts  --      1.5332                 1.4359                 1.4772
 IR Inten    --      7.2336                 1.3989                 1.7028

                     19                     20                     21
                      A                      A                      A
 Frequencies --   1498.6743              1516.7638              2998.9342
 Red. masses --      1.0463                 1.0515                 1.0588
 Frc consts  --      1.3847                 1.4253                 5.6106
 IR Inten    --      9.1560                 8.4578                46.2405

                     22                     23                     24
                      A                      A                      A
 Frequencies --   3016.5649              3032.4820              3069.7505
 Red. masses --      1.0393                 1.0987                 1.1010
 Frc consts  --      5.5723                 5.9527                 6.1131
 IR Inten    --     46.7595                17.9195                35.8472

                     25                     26                     27
                      A                      A                      A
 Frequencies --   3153.7120              3172.4051              3281.3596
 Red. masses --      1.0977                 1.0511                 1.1194
 Frc consts  --      6.4323                 6.2325                 7.1013
 IR Inten    --     20.5127                 4.0674                 4.5201

 - Thermochemistry -
 -------------------
 Temperature   298.150 Kelvin.  Pressure   1.00000 Atm.
 Atom     1 has atomic number  8 and mass  15.99491

 Molecular mass:    59.04969 amu.
 Principal axes and moments of inertia in atomic units:
                           1         2         3
     Eigenvalues --   109.87087 321.28244 372.41255
           X            0.99963   0.02574   0.00887
           Y           -0.02507   0.99733  -0.06857
           Z           -0.01062   0.06832   0.99761
 This molecule is an asymmetric top.
 Rotational symmetry number  1.
 Rotational temperatures (Kelvin)      0.78832     0.26959     0.23258
 Rotational constants (GHZ):          16.42602     5.61730     4.84608
 Zero-point vibrational energy     247198.1 (Joules/Mol)
                                   59.08176 (Kcal/Mol)
 Warning -- explicit consideration of   6 degrees of freedom as
           vibrations may cause significant error
 Vibrational temperatures:    189.63   267.80   321.73   536.05   653.52
          (Kelvin)            753.25  1224.85  1357.72  1513.13  1613.37
                             1679.01  1707.04  1785.60  1889.69  2005.88
                             2095.36  2126.32  2145.98  2156.26  2182.28
                             4314.80  4340.16  4363.07  4416.69  4537.49
                             4564.38  4721.14

 Zero-point correction=                           0.094153 (Hartree/Particle)
 Thermal correction to Energy=                    0.099832
 Thermal correction to Enthalpy=                  0.100776
 Thermal correction to Gibbs Free Energy=         0.065694
 Sum of electronic and zero-point Energies=           -193.549254
 Sum of electronic and thermal Energies=              -193.543576
 Sum of electronic and thermal Enthalpies=            -193.542631
 Sum of electronic and thermal Free Energies=         -193.577713

                     E (Thermal)             CV                S
                      KCal/Mol        Cal/Mol-Kelvin    Cal/Mol-Kelvin
 Total                   62.645             18.487             73.836
 Electronic               0.000              0.000              1.377
 Translational            0.889              2.981             38.148
 Rotational               0.889              2.981             24.090
 Vibrational             60.868             12.525             10.221
 Vibration     1          0.612              1.922              2.920
 Vibration     2          0.632              1.859              2.266
 Vibration     3          0.649              1.805              1.930
 Vibration     4          0.744              1.528              1.069
 Vibration     5          0.813              1.352              0.783
 Vibration     6          0.878              1.198              0.602

                           ! Non-Optimized Parameters !
 Normal termination of Gaussian 16 at Tue Apr  9 01:42:41 2019.
