 Gaussian 16, Revision A.03,
 Gaussian 16:  EM64L-G16RevA.03 25-Dec-2016

 ----------------------------------------------
 #p m062x/6-311+g(2df,2p) Opt=(CalcFC,ModRedun)
 ----------------------------------------------

 ----------------------------------------
 Gaussian Input Prepared from Scan Object
 ----------------------------------------
 Symbolic Z-matrix:
 Charge =  0 Multiplicity = 2

 SCF Done:  E(UM062X) =  -193.643407157     A.U. after   13 cycles

  Exact polarizability:   0.000   0.000   0.000   0.000   0.000   0.000
 Approx polarizability:  47.750  -0.226  45.823   0.628   0.013  45.253

 Optimization completed.
    -- Stationary point found.
 SCF Done:  E(UM062X) =  -193.636147044     A.U. after   12 cycles
 SCF Done:  E(UM062X) =  -193.641916376     A.U. after   11 cycles
 SCF Done:  E(UM062X) =  -193.642596944     A.U. after   12 cycles
 SCF Done:  E(UM062X) =  -193.642609011     A.U. after    9 cycles
 SCF Done:  E(UM062X) =  -193.642609182     A.U. after    7 cycles
 Optimization completed.
 SCF Done:  E(UM062X) =  -193.633169802     A.U. after   12 cycles
 SCF Done:  E(UM062X) =  -193.639236877     A.U. after   11 cycles
 SCF Done:  E(UM062X) =  -193.640781080     A.U. after   12 cycles
 SCF Done:  E(UM062X) =  -193.641118365     A.U. after   12 cycles
 SCF Done:  E(UM062X) =  -193.642185292     A.U. after    7 cycles
 SCF Done:  E(UM062X) =  -193.635986047     A.U. after   13 cycles
 SCF Done:  E(UM062X) =  -193.642493731     A.U. after   12 cycles
 SCF Done:  E(UM062X) =  -193.642986212     A.U. after   11 cycles
 SCF Done:  E(UM062X) =  -193.643007880     A.U. after   10 cycles
 SCF Done:  E(UM062X) =  -193.643008998     A.U. after    9 cycles
    -- Stationary point found.
 SCF Done:  E(UM062X) =  -193.636732876     A.U. after   12 cycles
 SCF Done:  E(UM062X) =  -193.642905542     A.U. after   12 cycles
 SCF Done:  E(UM062X) =  -193.643400564     A.U. after   12 cycles
 SCF Done:  E(UM062X) =  -193.643407118     A.U. after    9 cycles
 Optimization completed.
    -- Stationary point found.

                         Standard orientation:
 ---------------------------------------------------------------------
 Center     Atomic      Atomic             Coordinates (Angstroms)
 Number     Number       Type             X           Y           Z
 ---------------------------------------------------------------------
      1          8           0       -0.608507   -0.540851   -0.399263
      2          6           0        0.657674   -0.604581    0.217695
      3          6           0       -1.434470    0.457694    0.146471
      4          6           0        1.513246    0.571913   -0.084637
      5          1           0        0.544218   -0.727122    1.303289
      6          1           0        1.116222   -1.525265   -0.160884
      7          1           0       -1.007690    1.455740    0.008910
      8          1           0       -2.390744    0.403839   -0.367622
      9          1           0       -1.592965    0.291468    1.218049
     10          1           0        1.478712    1.006224   -1.073051
     11          1           0        2.301602    0.871770    0.588233
 ---------------------------------------------------------------------

 The electronic state is 2-A.
 Alpha  occ. eigenvalues --  -19.62411 -10.58717 -10.57307 -10.54623  -1.16145
 Alpha  occ. eigenvalues --   -0.86012  -0.77751  -0.68547  -0.57047  -0.55982
 Alpha  occ. eigenvalues --   -0.53590  -0.48850  -0.45960  -0.44927  -0.39149
 Alpha  occ. eigenvalues --   -0.33712  -0.27287
 Alpha virt. eigenvalues --    0.02134   0.03548   0.03731   0.04612   0.06456
 Alpha virt. eigenvalues --    0.07220   0.07343   0.08658   0.09769   0.11165
 Alpha virt. eigenvalues --    0.11909   0.14799   0.17732   0.19167   0.20941

  Beta  occ. eigenvalues --  -19.62384 -10.58781 -10.57296 -10.53941  -1.16019
  Beta  occ. eigenvalues --   -0.84436  -0.76349  -0.66782  -0.56554  -0.55224
  Beta  occ. eigenvalues --   -0.53167  -0.47972  -0.45257  -0.44175  -0.38803
  Beta  occ. eigenvalues --   -0.33463
  Beta virt. eigenvalues --   -0.03154   0.01560   0.03472   0.03571   0.04326
  Beta virt. eigenvalues --    0.06552   0.07171   0.07354   0.08418   0.09878
  Beta virt. eigenvalues --    0.10898   0.11935   0.13891   0.17823   0.19346

 Mulliken charges and spin densities:
               1          2
     1  O   -0.174839   0.000055
     2  C   -0.186479  -0.034060
     3  C   -0.277529   0.028937
     4  C   -0.354875   1.054029
     5  H    0.142666   0.010707
     6  H    0.139594   0.042995
     7  H    0.123278  -0.013800
     8  H    0.130295  -0.000278
     9  H    0.112673  -0.002223
    10  H    0.180439  -0.048087
    11  H    0.164777  -0.038274
 Sum of Mulliken charges =  -0.00000   1.00000

 Dipole moment (field-independent basis, Debye):
    X=              0.4703    Y=              0.6908    Z=              0.9603  Tot=              1.2730
 Quadrupole moment (field-independent basis, Debye-Ang):
   XX=            -24.4875   YY=            -26.8503   ZZ=            -26.3806
   XY=             -1.4876   XZ=             -0.2781   YZ=             -1.1172

 Normal termination of Gaussian 16 at Fri Mar 29 11:31:40 2019.
