 Gaussian 16, Revision A.03,
 Gaussian 16:  EM64L-G16RevA.03 25-Dec-2016

 ----------------------------------------------
 #p m062x/6-311+g(2df,2p) Opt=(CalcFC,ModRedun)
 ----------------------------------------------

 ----------------------------------------
 Gaussian Input Prepared from Scan Object
 ----------------------------------------
 Symbolic Z-matrix:
 Charge =  0 Multiplicity = 2

 SCF Done:  E(UM062X) =  -193.643407157     A.U. after   13 cycles

  Exact polarizability:   0.000   0.000   0.000   0.000   0.000   0.000
 Approx polarizability:  47.750  -0.226  45.823   0.628   0.013  45.253

 Optimization completed.
    -- Stationary point found.
 SCF Done:  E(UM062X) =  -193.630752393     A.U. after   12 cycles
 SCF Done:  E(UM062X) =  -193.639689883     A.U. after   12 cycles
 SCF Done:  E(UM062X) =  -193.640357892     A.U. after   12 cycles
 SCF Done:  E(UM062X) =  -193.640396379     A.U. after   11 cycles
 SCF Done:  E(UM062X) =  -193.640404656     A.U. after   10 cycles
 SCF Done:  E(UM062X) =  -193.640406628     A.U. after   10 cycles
 Optimization completed.
 SCF Done:  E(UM062X) =  -193.622485509     A.U. after   12 cycles
 SCF Done:  E(UM062X) =  -193.634328552     A.U. after   12 cycles
 SCF Done:  E(UM062X) =  -193.636016612     A.U. after   12 cycles
 SCF Done:  E(UM062X) =  -193.640905547     A.U. after   10 cycles
 SCF Done:  E(UM062X) =  -193.640991966     A.U. after   10 cycles
 SCF Done:  E(UM062X) =  -193.640998058     A.U. after    9 cycles
 SCF Done:  E(UM062X) =  -193.640999330     A.U. after    8 cycles
    -- Stationary point found.
 SCF Done:  E(UM062X) =  -193.632975934     A.U. after   12 cycles
 SCF Done:  E(UM062X) =  -193.642885253     A.U. after   12 cycles
 SCF Done:  E(UM062X) =  -193.643384389     A.U. after   12 cycles
 SCF Done:  E(UM062X) =  -193.643406373     A.U. after   10 cycles
 SCF Done:  E(UM062X) =  -193.643407118     A.U. after    9 cycles
 SCF Done:  E(UM062X) =  -193.643407155     A.U. after    7 cycles
 Optimization completed.
    -- Stationary point found.

                         Standard orientation:
 ---------------------------------------------------------------------
 Center     Atomic      Atomic             Coordinates (Angstroms)
 Number     Number       Type             X           Y           Z
 ---------------------------------------------------------------------
      1          8           0       -0.608656   -0.541160   -0.399014
      2          6           0        0.657685   -0.604653    0.217651
      3          6           0       -1.434256    0.457904    0.146388
      4          6           0        1.513001    0.572074   -0.084670
      5          1           0        0.544530   -0.727265    1.303249
      6          1           0        1.116179   -1.525307   -0.161080
      7          1           0       -1.006935    1.455661    0.008454
      8          1           0       -2.390565    0.404219   -0.367651
      9          1           0       -1.592796    0.292185    1.218035
     10          1           0        2.301432    0.871877    0.588174
     11          1           0        1.478815    1.005957   -1.073287
 ---------------------------------------------------------------------

 The electronic state is 2-A.
 Alpha  occ. eigenvalues --  -19.62410 -10.58716 -10.57306 -10.54625  -1.16145
 Alpha  occ. eigenvalues --   -0.86011  -0.77752  -0.68546  -0.57047  -0.55981
 Alpha  occ. eigenvalues --   -0.53589  -0.48850  -0.45960  -0.44925  -0.39150
 Alpha  occ. eigenvalues --   -0.33711  -0.27290
 Alpha virt. eigenvalues --    0.02134   0.03548   0.03731   0.04611   0.06456
 Alpha virt. eigenvalues --    0.07220   0.07344   0.08658   0.09768   0.11165
 Alpha virt. eigenvalues --    0.11909   0.14799   0.17733   0.19167   0.20940

  Beta  occ. eigenvalues --  -19.62384 -10.58780 -10.57295 -10.53943  -1.16018
  Beta  occ. eigenvalues --   -0.84434  -0.76350  -0.66782  -0.56554  -0.55224
  Beta  occ. eigenvalues --   -0.53167  -0.47972  -0.45257  -0.44174  -0.38804
  Beta  occ. eigenvalues --   -0.33463
  Beta virt. eigenvalues --   -0.03155   0.01560   0.03472   0.03571   0.04326
  Beta virt. eigenvalues --    0.06552   0.07171   0.07355   0.08418   0.09877
  Beta virt. eigenvalues --    0.10899   0.11936   0.13892   0.17825   0.19347

 Mulliken charges and spin densities:
               1          2
     1  O   -0.174862   0.000049
     2  C   -0.186582  -0.034033
     3  C   -0.277523   0.028958
     4  C   -0.354803   1.054018
     5  H    0.142699   0.010680
     6  H    0.139592   0.042996
     7  H    0.123284  -0.013814
     8  H    0.130296  -0.000276
     9  H    0.112692  -0.002225
    10  H    0.164765  -0.038273
    11  H    0.180443  -0.048080
 Sum of Mulliken charges =  -0.00000   1.00000

 Dipole moment (field-independent basis, Debye):
    X=              0.4713    Y=              0.6913    Z=              0.9595  Tot=              1.2731
 Quadrupole moment (field-independent basis, Debye-Ang):
   XX=            -24.4872   YY=            -26.8516   ZZ=            -26.3797
   XY=             -1.4884   XZ=             -0.2785   YZ=             -1.1167

 Normal termination of Gaussian 16 at Fri Mar 29 12:00:34 2019.
