 Gaussian 16, Revision A.03,
 Gaussian 16:  EM64L-G16RevA.03 25-Dec-2016

 ----------------------------------------------
 #p m062x/6-311+g(2df,2p) Opt=(CalcFC,ModRedun)
 ----------------------------------------------

 ----------------------------------------
 Gaussian Input Prepared from Scan Object
 ----------------------------------------
 Symbolic Z-matrix:
 Charge =  0 Multiplicity = 2

 SCF Done:  E(UM062X) =  -193.643407157     A.U. after   13 cycles

  Exact polarizability:   0.000   0.000   0.000   0.000   0.000   0.000
 Approx polarizability:  47.750  -0.226  45.823   0.628   0.013  45.253

 Optimization completed.
    -- Stationary point found.
 SCF Done:  E(UM062X) =  -193.642583653     A.U. after   11 cycles
 SCF Done:  E(UM062X) =  -193.643319504     A.U. after   11 cycles
 SCF Done:  E(UM062X) =  -193.643325092     A.U. after    9 cycles
 Optimization completed.
 SCF Done:  E(UM062X) =  -193.642321126     A.U. after   11 cycles
 SCF Done:  E(UM062X) =  -193.643056361     A.U. after   11 cycles
 SCF Done:  E(UM062X) =  -193.643064238     A.U. after   10 cycles
 SCF Done:  E(UM062X) =  -193.643064276     A.U. after    7 cycles
 SCF Done:  E(UM062X) =  -193.641847545     A.U. after   11 cycles
 SCF Done:  E(UM062X) =  -193.642596253     A.U. after   11 cycles
 SCF Done:  E(UM062X) =  -193.642422402     A.U. after   11 cycles
 SCF Done:  E(UM062X) =  -193.643205225     A.U. after   11 cycles
 SCF Done:  E(UM062X) =  -193.643208770     A.U. after    9 cycles
 SCF Done:  E(UM062X) =  -193.642580102     A.U. after   11 cycles
 SCF Done:  E(UM062X) =  -193.643348652     A.U. after   11 cycles
 SCF Done:  E(UM062X) =  -193.643353316     A.U. after    9 cycles
 SCF Done:  E(UM062X) =  -193.643353418     A.U. after    7 cycles
    -- Stationary point found.
 SCF Done:  E(UM062X) =  -193.642651633     A.U. after   11 cycles
 SCF Done:  E(UM062X) =  -193.643402342     A.U. after   11 cycles
 SCF Done:  E(UM062X) =  -193.643407122     A.U. after   10 cycles
 Optimization completed.
    -- Stationary point found.

                         Standard orientation:
 ---------------------------------------------------------------------
 Center     Atomic      Atomic             Coordinates (Angstroms)
 Number     Number       Type             X           Y           Z
 ---------------------------------------------------------------------
      1          8           0       -0.608645   -0.541195   -0.399008
      2          6           0        0.657615   -0.604633    0.217753
      3          6           0       -1.434209    0.457932    0.146353
      4          6           0        1.512947    0.572055   -0.084669
      5          1           0        0.544552   -0.727100    1.303363
      6          1           0        1.116216   -1.525298   -0.160916
      7          1           0       -1.006491    1.455612    0.009004
      8          1           0       -2.390298    0.404721   -0.368144
      9          1           0       -1.593261    0.291908    1.217878
     10          1           0        1.478822    1.005264   -1.073673
     11          1           0        2.301501    0.872327    0.587929
 ---------------------------------------------------------------------

 The electronic state is 2-A.
 Alpha  occ. eigenvalues --  -19.62412 -10.58716 -10.57307 -10.54626  -1.16146
 Alpha  occ. eigenvalues --   -0.86010  -0.77752  -0.68545  -0.57047  -0.55982
 Alpha  occ. eigenvalues --   -0.53590  -0.48850  -0.45956  -0.44924  -0.39152
 Alpha  occ. eigenvalues --   -0.33712  -0.27290
 Alpha virt. eigenvalues --    0.02134   0.03548   0.03731   0.04611   0.06456
 Alpha virt. eigenvalues --    0.07220   0.07344   0.08657   0.09767   0.11165
 Alpha virt. eigenvalues --    0.11909   0.14799   0.17734   0.19168   0.20938

  Beta  occ. eigenvalues --  -19.62385 -10.58780 -10.57295 -10.53944  -1.16020
  Beta  occ. eigenvalues --   -0.84434  -0.76350  -0.66780  -0.56554  -0.55225
  Beta  occ. eigenvalues --   -0.53167  -0.47972  -0.45253  -0.44173  -0.38806
  Beta  occ. eigenvalues --   -0.33463
  Beta virt. eigenvalues --   -0.03154   0.01560   0.03472   0.03572   0.04326
  Beta virt. eigenvalues --    0.06552   0.07170   0.07355   0.08418   0.09876
  Beta virt. eigenvalues --    0.10899   0.11936   0.13892   0.17825   0.19348

 Mulliken charges and spin densities:
               1          2
     1  O   -0.174837   0.000049
     2  C   -0.186581  -0.034031
     3  C   -0.277534   0.028976
     4  C   -0.354794   1.054044
     5  H    0.142702   0.010666
     6  H    0.139586   0.042993
     7  H    0.123282  -0.013831
     8  H    0.130295  -0.000277
     9  H    0.112709  -0.002220
    10  H    0.180413  -0.048091
    11  H    0.164759  -0.038277
 Sum of Mulliken charges =  -0.00000   1.00000

 Dipole moment (field-independent basis, Debye):
    X=              0.4713    Y=              0.6913    Z=              0.9595  Tot=              1.2731
 Quadrupole moment (field-independent basis, Debye-Ang):
   XX=            -24.4868   YY=            -26.8525   ZZ=            -26.3795
   XY=             -1.4884   XZ=             -0.2782   YZ=             -1.1156

 Normal termination of Gaussian 16 at Wed Mar 13 15:43:13 2019.
