 Gaussian 16, Revision A.03,
 Gaussian 16:  EM64L-G16RevA.03 25-Dec-2016

 ----------------------------------------------
 #p m062x/6-311+g(2df,2p) Opt=(CalcFC,ModRedun)
 ----------------------------------------------

 ----------------------------------------
 Gaussian Input Prepared from Scan Object
 ----------------------------------------
 Symbolic Z-matrix:
 Charge =  0 Multiplicity = 2

 SCF Done:  E(UM062X) =  -193.643129622     A.U. after   13 cycles

  Exact polarizability:   0.000   0.000   0.000   0.000   0.000   0.000
 Approx polarizability:  48.712   0.549  46.239   0.256   0.142  43.452

 Optimization completed.
    -- Stationary point found.
 SCF Done:  E(UM062X) =  -193.641940746     A.U. after   10 cycles
 SCF Done:  E(UM062X) =  -193.642880981     A.U. after   10 cycles
 SCF Done:  E(UM062X) =  -193.642882518     A.U. after    9 cycles
 SCF Done:  E(UM062X) =  -193.642882048     A.U. after   10 cycles
 SCF Done:  E(UM062X) =  -193.642882554     A.U. after    9 cycles
 Optimization completed.
 SCF Done:  E(UM062X) =  -193.641222554     A.U. after   10 cycles
 SCF Done:  E(UM062X) =  -193.642201371     A.U. after   10 cycles
 SCF Done:  E(UM062X) =  -193.642203703     A.U. after    8 cycles
 SCF Done:  E(UM062X) =  -193.640195822     A.U. after   10 cycles
 SCF Done:  E(UM062X) =  -193.641244839     A.U. after    9 cycles
 SCF Done:  E(UM062X) =  -193.641164768     A.U. after   10 cycles
 SCF Done:  E(UM062X) =  -193.642195399     A.U. after   10 cycles
 SCF Done:  E(UM062X) =  -193.642197840     A.U. after    9 cycles
 SCF Done:  E(UM062X) =  -193.641908725     A.U. after   10 cycles
 SCF Done:  E(UM062X) =  -193.642881291     A.U. after   10 cycles
 SCF Done:  E(UM062X) =  -193.642883556     A.U. after    8 cycles
    -- Stationary point found.
 SCF Done:  E(UM062X) =  -193.642188319     A.U. after   10 cycles
 SCF Done:  E(UM062X) =  -193.643127373     A.U. after   10 cycles
 SCF Done:  E(UM062X) =  -193.643129613     A.U. after    8 cycles
 Optimization completed.
    -- Stationary point found.

                         Standard orientation:
 ---------------------------------------------------------------------
 Center     Atomic      Atomic             Coordinates (Angstroms)
 Number     Number       Type             X           Y           Z
 ---------------------------------------------------------------------
      1          8           0        0.449188   -0.505758   -0.051338
      2          6           0       -0.557395    0.472418    0.023070
      3          6           0        1.736886    0.047169    0.009458
      4          6           0       -1.883590   -0.177639   -0.014983
      5          1           0       -0.431035    1.058521    0.951298
      6          1           0       -0.450599    1.190778   -0.804763
      7          1           0        1.892596    0.587480    0.949888
      8          1           0        2.449668   -0.770996   -0.053452
      9          1           0        1.911151    0.738776   -0.822320
     10          1           0       -1.965549   -1.225817    0.223831
     11          1           0       -2.775140    0.415633   -0.139047
 ---------------------------------------------------------------------

 The electronic state is 2-A.
 Alpha  occ. eigenvalues --  -19.62685 -10.58860 -10.57680 -10.54131  -1.16583
 Alpha  occ. eigenvalues --   -0.86554  -0.76575  -0.69355  -0.57125  -0.56362
 Alpha  occ. eigenvalues --   -0.53732  -0.48361  -0.46507  -0.44398  -0.39845
 Alpha  occ. eigenvalues --   -0.34039  -0.26302
 Alpha virt. eigenvalues --    0.01990   0.03410   0.04254   0.04800   0.05530
 Alpha virt. eigenvalues --    0.06661   0.08277   0.08834   0.11074   0.11266
 Alpha virt. eigenvalues --    0.13155   0.15104   0.18921   0.19134   0.21237

  Beta  occ. eigenvalues --  -19.62681 -10.58929 -10.57680 -10.53436  -1.16538
  Beta  occ. eigenvalues --   -0.85001  -0.75545  -0.67229  -0.56711  -0.55763
  Beta  occ. eigenvalues --   -0.53332  -0.47379  -0.45584  -0.43721  -0.39654
  Beta  occ. eigenvalues --   -0.33614
  Beta virt. eigenvalues --   -0.02569   0.01714   0.03030   0.04054   0.04785
  Beta virt. eigenvalues --    0.05600   0.06785   0.08408   0.08612   0.09620
  Beta virt. eigenvalues --    0.12222   0.13209   0.14218   0.18831   0.19413

 Mulliken charges and spin densities:
               1          2
     1  O   -0.166380   0.002652
     2  C   -0.206650  -0.040295
     3  C   -0.249456   0.004622
     4  C   -0.339819   1.039982
     5  H    0.130291   0.044531
     6  H    0.135429   0.028126
     7  H    0.112373  -0.000758
     8  H    0.129449  -0.000346
     9  H    0.112430  -0.000412
    10  H    0.178235  -0.037887
    11  H    0.164098  -0.040214
 Sum of Mulliken charges =  -0.00000   1.00000

 Dipole moment (field-independent basis, Debye):
    X=              0.3828    Y=              1.3655    Z=              0.2224  Tot=              1.4355
 Quadrupole moment (field-independent basis, Debye-Ang):
   XX=            -23.2861   YY=            -26.5036   ZZ=            -27.1999
   XY=             -0.2121   XZ=             -0.0908   YZ=             -0.4750

 Normal termination of Gaussian 16 at Tue Mar 12 01:22:56 2019.
