 Gaussian 16, Revision A.03,
 Gaussian 16:  EM64L-G16RevA.03 25-Dec-2016

 ----------------------------------------------
 #p m062x/6-311+g(2df,2p) Opt=(CalcFC,ModRedun)
 ----------------------------------------------

 ----------------------------------------
 Gaussian Input Prepared from Scan Object
 ----------------------------------------
 Symbolic Z-matrix:
 Charge =  0 Multiplicity = 2

 SCF Done:  E(UM062X) =  -193.643129622     A.U. after   13 cycles

  Exact polarizability:   0.000   0.000   0.000   0.000   0.000   0.000
 Approx polarizability:  48.712   0.549  46.239   0.256   0.142  43.452

 Optimization completed.
    -- Stationary point found.
 SCF Done:  E(UM062X) =  -193.642310459     A.U. after   11 cycles
 SCF Done:  E(UM062X) =  -193.643067784     A.U. after   11 cycles
 SCF Done:  E(UM062X) =  -193.643073263     A.U. after   10 cycles
 SCF Done:  E(UM062X) =  -193.643076093     A.U. after   10 cycles
 SCF Done:  E(UM062X) =  -193.643076169     A.U. after    7 cycles
 Optimization completed.
 SCF Done:  E(UM062X) =  -193.642151485     A.U. after   11 cycles
 SCF Done:  E(UM062X) =  -193.642901049     A.U. after   11 cycles
 SCF Done:  E(UM062X) =  -193.642916505     A.U. after   10 cycles
 SCF Done:  E(UM062X) =  -193.642916611     A.U. after    7 cycles
 SCF Done:  E(UM062X) =  -193.643092927     A.U. after   10 cycles
 SCF Done:  E(UM062X) =  -193.643095583     A.U. after   10 cycles
 SCF Done:  E(UM062X) =  -193.643096798     A.U. after   10 cycles
    -- Stationary point found.
 SCF Done:  E(UM062X) =  -193.642303024     A.U. after   11 cycles
 SCF Done:  E(UM062X) =  -193.643079275     A.U. after   12 cycles
 SCF Done:  E(UM062X) =  -193.643044089     A.U. after   12 cycles
 SCF Done:  E(UM062X) =  -193.643123125     A.U. after   12 cycles
 SCF Done:  E(UM062X) =  -193.643128552     A.U. after   10 cycles
 SCF Done:  E(UM062X) =  -193.643129593     A.U. after    9 cycles
 SCF Done:  E(UM062X) =  -193.643129622     A.U. after    7 cycles
 Optimization completed.
    -- Stationary point found.

                         Standard orientation:
 ---------------------------------------------------------------------
 Center     Atomic      Atomic             Coordinates (Angstroms)
 Number     Number       Type             X           Y           Z
 ---------------------------------------------------------------------
      1          8           0        0.449200   -0.505753   -0.051710
      2          6           0       -0.557414    0.472409    0.022973
      3          6           0        1.736902    0.047179    0.009626
      4          6           0       -1.883610   -0.177643   -0.014835
      5          1           0       -0.430794    1.058418    0.951223
      6          1           0       -0.450826    1.190823   -0.804836
      7          1           0        1.892351    0.587002    0.950401
      8          1           0        2.449753   -0.770953   -0.053406
      9          1           0        1.911392    0.739182   -0.821730
     10          1           0       -1.965582   -1.225712    0.224460
     11          1           0       -2.775165    0.415596   -0.139021
 ---------------------------------------------------------------------

 The electronic state is 2-A.
 Alpha  occ. eigenvalues --  -19.62685 -10.58860 -10.57680 -10.54131  -1.16581
 Alpha  occ. eigenvalues --   -0.86554  -0.76575  -0.69355  -0.57125  -0.56362
 Alpha  occ. eigenvalues --   -0.53731  -0.48362  -0.46505  -0.44398  -0.39845
 Alpha  occ. eigenvalues --   -0.34039  -0.26303
 Alpha virt. eigenvalues --    0.01990   0.03410   0.04254   0.04800   0.05530
 Alpha virt. eigenvalues --    0.06661   0.08278   0.08834   0.11073   0.11266
 Alpha virt. eigenvalues --    0.13156   0.15104   0.18921   0.19132   0.21237

  Beta  occ. eigenvalues --  -19.62681 -10.58929 -10.57680 -10.53437  -1.16536
  Beta  occ. eigenvalues --   -0.85001  -0.75545  -0.67229  -0.56710  -0.55762
  Beta  occ. eigenvalues --   -0.53332  -0.47381  -0.45582  -0.43721  -0.39653
  Beta  occ. eigenvalues --   -0.33614
  Beta virt. eigenvalues --   -0.02569   0.01714   0.03030   0.04054   0.04785
  Beta virt. eigenvalues --    0.05600   0.06786   0.08408   0.08612   0.09620
  Beta virt. eigenvalues --    0.12221   0.13210   0.14218   0.18831   0.19412

 Mulliken charges and spin densities:
               1          2
     1  O   -0.166410   0.002651
     2  C   -0.206632  -0.040273
     3  C   -0.249460   0.004624
     4  C   -0.339809   1.039963
     5  H    0.130264   0.044546
     6  H    0.135454   0.028104
     7  H    0.112372  -0.000759
     8  H    0.129447  -0.000346
     9  H    0.112444  -0.000413
    10  H    0.178230  -0.037884
    11  H    0.164099  -0.040213
 Sum of Mulliken charges =  -0.00000   1.00000

 Dipole moment (field-independent basis, Debye):
    X=              0.3827    Y=              1.3656    Z=              0.2233  Tot=              1.4357
 Quadrupole moment (field-independent basis, Debye-Ang):
   XX=            -23.2856   YY=            -26.5041   ZZ=            -27.1997
   XY=             -0.2120   XZ=             -0.0905   YZ=             -0.4766

 Normal termination of Gaussian 16 at Mon Mar 11 21:22:37 2019.
