 Gaussian 16, Revision A.03,
 Gaussian 16:  EM64L-G16RevA.03 25-Dec-2016

 ----------------------------------------------
 #p m062x/6-311+g(2df,2p) Opt=(CalcFC,ModRedun)
 ----------------------------------------------

 ----------------------------------------
 Gaussian Input Prepared from Scan Object
 ----------------------------------------
 Symbolic Z-matrix:
 Charge =  0 Multiplicity = 2

 SCF Done:  E(UM062X) =  -193.643407157     A.U. after   13 cycles

  Exact polarizability:   0.000   0.000   0.000   0.000   0.000   0.000
 Approx polarizability:  47.750  -0.226  45.823   0.628   0.013  45.253

 Optimization completed.
    -- Stationary point found.
 SCF Done:  E(UM062X) =  -193.642564444     A.U. after   11 cycles
 SCF Done:  E(UM062X) =  -193.643317142     A.U. after   11 cycles
 SCF Done:  E(UM062X) =  -193.643322254     A.U. after    9 cycles
 Optimization completed.
 SCF Done:  E(UM062X) =  -193.642290252     A.U. after   11 cycles
 SCF Done:  E(UM062X) =  -193.643043965     A.U. after   11 cycles
 SCF Done:  E(UM062X) =  -193.643050748     A.U. after   10 cycles
 SCF Done:  E(UM062X) =  -193.643050799     A.U. after    7 cycles
 SCF Done:  E(UM062X) =  -193.641789645     A.U. after   11 cycles
 SCF Done:  E(UM062X) =  -193.642560010     A.U. after   11 cycles
 SCF Done:  E(UM062X) =  -193.642990095     A.U. after   10 cycles
 SCF Done:  E(UM062X) =  -193.642400100     A.U. after   11 cycles
 SCF Done:  E(UM062X) =  -193.643195513     A.U. after   11 cycles
 SCF Done:  E(UM062X) =  -193.643200291     A.U. after    9 cycles
 SCF Done:  E(UM062X) =  -193.642563035     A.U. after   11 cycles
 SCF Done:  E(UM062X) =  -193.643347783     A.U. after   11 cycles
 SCF Done:  E(UM062X) =  -193.643351173     A.U. after    9 cycles
    -- Stationary point found.
 SCF Done:  E(UM062X) =  -193.642636759     A.U. after   11 cycles
 SCF Done:  E(UM062X) =  -193.643402392     A.U. after   11 cycles
 SCF Done:  E(UM062X) =  -193.643407150     A.U. after   10 cycles
 Optimization completed.
    -- Stationary point found.

                         Standard orientation:
 ---------------------------------------------------------------------
 Center     Atomic      Atomic             Coordinates (Angstroms)
 Number     Number       Type             X           Y           Z
 ---------------------------------------------------------------------
      1          8           0       -0.608623   -0.541157   -0.399053
      2          6           0        0.657623   -0.604642    0.217695
      3          6           0       -1.434216    0.457910    0.146380
      4          6           0        1.512924    0.572073   -0.084667
      5          1           0        0.544491   -0.727276    1.303302
      6          1           0        1.116254   -1.525300   -0.160937
      7          1           0       -1.006832    1.455656    0.008505
      8          1           0       -2.390532    0.404273   -0.367651
      9          1           0       -1.592741    0.292151    1.218021
     10          1           0        1.479040    1.005660   -1.073499
     11          1           0        2.301317    0.872050    0.588227
 ---------------------------------------------------------------------

 The electronic state is 2-A.
 Alpha  occ. eigenvalues --  -19.62411 -10.58716 -10.57307 -10.54625  -1.16146
 Alpha  occ. eigenvalues --   -0.86010  -0.77752  -0.68545  -0.57047  -0.55982
 Alpha  occ. eigenvalues --   -0.53590  -0.48849  -0.45959  -0.44924  -0.39151
 Alpha  occ. eigenvalues --   -0.33712  -0.27290
 Alpha virt. eigenvalues --    0.02134   0.03548   0.03731   0.04611   0.06456
 Alpha virt. eigenvalues --    0.07220   0.07344   0.08658   0.09768   0.11165
 Alpha virt. eigenvalues --    0.11909   0.14799   0.17734   0.19167   0.20939

  Beta  occ. eigenvalues --  -19.62384 -10.58780 -10.57296 -10.53943  -1.16020
  Beta  occ. eigenvalues --   -0.84434  -0.76350  -0.66781  -0.56554  -0.55224
  Beta  occ. eigenvalues --   -0.53167  -0.47971  -0.45256  -0.44173  -0.38805
  Beta  occ. eigenvalues --   -0.33463
  Beta virt. eigenvalues --   -0.03154   0.01560   0.03472   0.03571   0.04326
  Beta virt. eigenvalues --    0.06552   0.07171   0.07355   0.08418   0.09877
  Beta virt. eigenvalues --    0.10899   0.11936   0.13892   0.17825   0.19346

 Mulliken charges and spin densities:
               1          2
     1  O   -0.174838   0.000046
     2  C   -0.186607  -0.034027
     3  C   -0.277517   0.028971
     4  C   -0.354778   1.054030
     5  H    0.142703   0.010671
     6  H    0.139586   0.042995
     7  H    0.123288  -0.013823
     8  H    0.130297  -0.000276
     9  H    0.112692  -0.002225
    10  H    0.180425  -0.048085
    11  H    0.164749  -0.038277
 Sum of Mulliken charges =  -0.00000   1.00000

 Dipole moment (field-independent basis, Debye):
    X=              0.4712    Y=              0.6912    Z=              0.9596  Tot=              1.2730
 Quadrupole moment (field-independent basis, Debye-Ang):
   XX=            -24.4871   YY=            -26.8520   ZZ=            -26.3796
   XY=             -1.4884   XZ=             -0.2788   YZ=             -1.1166

 Normal termination of Gaussian 16 at Tue Apr 23 23:26:34 2019.
