 Gaussian 16, Revision A.03,
 Gaussian 16:  EM64L-G16RevA.03 25-Dec-2016

 ----------------------------------------------
 #p m062x/6-311+g(2df,2p) Opt=(CalcFC,ModRedun)
 ----------------------------------------------

 ----------------------------------------
 Gaussian Input Prepared from Scan Object
 ----------------------------------------
 Symbolic Z-matrix:
 Charge =  0 Multiplicity = 2

 SCF Done:  E(UM062X) =  -193.643407157     A.U. after   13 cycles

  Exact polarizability:   0.000   0.000   0.000   0.000   0.000   0.000
 Approx polarizability:  47.750  -0.226  45.823   0.628   0.013  45.253

 Optimization completed.
    -- Stationary point found.
 SCF Done:  E(UM062X) =  -193.642278647     A.U. after   10 cycles
 SCF Done:  E(UM062X) =  -193.643196084     A.U. after   10 cycles
 SCF Done:  E(UM062X) =  -193.643197833     A.U. after    8 cycles
 Optimization completed.
 SCF Done:  E(UM062X) =  -193.641658532     A.U. after   10 cycles
 SCF Done:  E(UM062X) =  -193.642618317     A.U. after   10 cycles
 SCF Done:  E(UM062X) =  -193.642620993     A.U. after    8 cycles
 SCF Done:  E(UM062X) =  -193.640766860     A.U. after   10 cycles
 SCF Done:  E(UM062X) =  -193.641804924     A.U. after   10 cycles
 SCF Done:  E(UM062X) =  -193.641808732     A.U. after    8 cycles
 SCF Done:  E(UM062X) =  -193.641853427     A.U. after    8 cycles
 SCF Done:  E(UM062X) =  -193.641611280     A.U. after   10 cycles
 SCF Done:  E(UM062X) =  -193.642646525     A.U. after   10 cycles
 SCF Done:  E(UM062X) =  -193.642647297     A.U. after    8 cycles
 SCF Done:  E(UM062X) =  -193.642250848     A.U. after   10 cycles
 SCF Done:  E(UM062X) =  -193.643207411     A.U. after   10 cycles
 SCF Done:  E(UM062X) =  -193.643208144     A.U. after    8 cycles
    -- Stationary point found.
 SCF Done:  E(UM062X) =  -193.642487499     A.U. after   10 cycles
 SCF Done:  E(UM062X) =  -193.643405934     A.U. after   10 cycles
 SCF Done:  E(UM062X) =  -193.643407156     A.U. after    7 cycles
 Optimization completed.
    -- Stationary point found.

                         Standard orientation:
 ---------------------------------------------------------------------
 Center     Atomic      Atomic             Coordinates (Angstroms)
 Number     Number       Type             X           Y           Z
 ---------------------------------------------------------------------
      1          8           0       -0.608642   -0.541163   -0.399014
      2          6           0        0.657693   -0.604658    0.217670
      3          6           0       -1.434236    0.457905    0.146382
      4          6           0        1.512938    0.572099   -0.084672
      5          1           0        0.544515   -0.727237    1.303272
      6          1           0        1.116242   -1.525311   -0.161024
      7          1           0       -1.006938    1.455662    0.008410
      8          1           0       -2.390531    0.404145   -0.367674
      9          1           0       -1.592770    0.292216    1.218044
     10          1           0        1.478921    1.005773   -1.073394
     11          1           0        2.301327    0.871982    0.588198
 ---------------------------------------------------------------------

 The electronic state is 2-A.
 Alpha  occ. eigenvalues --  -19.62410 -10.58716 -10.57306 -10.54625  -1.16145
 Alpha  occ. eigenvalues --   -0.86011  -0.77752  -0.68546  -0.57047  -0.55981
 Alpha  occ. eigenvalues --   -0.53589  -0.48850  -0.45960  -0.44925  -0.39150
 Alpha  occ. eigenvalues --   -0.33711  -0.27291
 Alpha virt. eigenvalues --    0.02134   0.03548   0.03731   0.04611   0.06456
 Alpha virt. eigenvalues --    0.07220   0.07344   0.08658   0.09768   0.11165
 Alpha virt. eigenvalues --    0.11909   0.14799   0.17734   0.19167   0.20940

  Beta  occ. eigenvalues --  -19.62384 -10.58780 -10.57295 -10.53943  -1.16018
  Beta  occ. eigenvalues --   -0.84434  -0.76350  -0.66781  -0.56554  -0.55224
  Beta  occ. eigenvalues --   -0.53167  -0.47972  -0.45257  -0.44174  -0.38804
  Beta  occ. eigenvalues --   -0.33463
  Beta virt. eigenvalues --   -0.03155   0.01560   0.03472   0.03572   0.04326
  Beta virt. eigenvalues --    0.06552   0.07171   0.07355   0.08418   0.09877
  Beta virt. eigenvalues --    0.10899   0.11936   0.13892   0.17825   0.19347

 Mulliken charges and spin densities:
               1          2
     1  O   -0.174856   0.000049
     2  C   -0.186596  -0.034024
     3  C   -0.277522   0.028965
     4  C   -0.354790   1.054016
     5  H    0.142701   0.010673
     6  H    0.139590   0.042994
     7  H    0.123287  -0.013819
     8  H    0.130295  -0.000275
     9  H    0.112688  -0.002225
    10  H    0.180441  -0.048081
    11  H    0.164761  -0.038273
 Sum of Mulliken charges =  -0.00000   1.00000

 Dipole moment (field-independent basis, Debye):
    X=              0.4715    Y=              0.6912    Z=              0.9595  Tot=              1.2731
 Quadrupole moment (field-independent basis, Debye-Ang):
   XX=            -24.4872   YY=            -26.8518   ZZ=            -26.3795
   XY=             -1.4884   XZ=             -0.2787   YZ=             -1.1165

 Normal termination of Gaussian 16 at Tue Apr 23 22:33:20 2019.
