 Gaussian 16, Revision A.03,
 Gaussian 16:  EM64L-G16RevA.03 25-Dec-2016

 ----------------------------------------------------------------------
 #p m062x/6-311+g(2df,2p) opt=(calcfc,verytight,gdiis,maxcycles=900) fr
 eq iop(7/33=1,2/16=3)
 ----------------------------------------------------------------------

 ------------------------------
 Gaussian input prepared by ASE
 ------------------------------
 Symbolic Z-matrix:
 Charge =  0 Multiplicity = 2

 SCF Done:  E(UM062X) =  -232.954544723     A.U. after   13 cycles
 SCF Done:  E(UM062X) =  -232.961816496     A.U. after   12 cycles
 SCF Done:  E(UM062X) =  -232.962328744     A.U. after   14 cycles
 SCF Done:  E(UM062X) =  -232.965484913     A.U. after   12 cycles
 SCF Done:  E(UM062X) =  -232.965626576     A.U. after   11 cycles
 SCF Done:  E(UM062X) =  -232.965698022     A.U. after   10 cycles
 SCF Done:  E(UM062X) =  -232.965710456     A.U. after   10 cycles
 SCF Done:  E(UM062X) =  -232.965715597     A.U. after    9 cycles
 SCF Done:  E(UM062X) =  -232.965719393     A.U. after    9 cycles
 SCF Done:  E(UM062X) =  -232.965741852     A.U. after   11 cycles
 SCF Done:  E(UM062X) =  -232.966443580     A.U. after    8 cycles
 SCF Done:  E(UM062X) =  -232.966443616     A.U. after    8 cycles
 SCF Done:  E(UM062X) =  -232.966443616     A.U. after    6 cycles
 SCF Done:  E(UM062X) =  -232.966443616     A.U. after    5 cycles
 SCF Done:  E(UM062X) =  -232.966443616     A.U. after    3 cycles
 SCF Done:  E(UM062X) =  -232.966443616     A.U. after    3 cycles
 SCF Done:  E(UM062X) =  -232.966443616     A.U. after    3 cycles
 SCF Done:  E(UM062X) =  -232.966443616     A.U. after    3 cycles
 SCF Done:  E(UM062X) =  -232.966443616     A.U. after    3 cycles
 Optimization completed.
    -- Stationary point found.
 Normal termination of Gaussian 16 at Tue Apr  9 01:19:27 2019.

 ----------------------------------------------------------------------
 #P Geom=AllCheck Guess=TCheck SCRF=Check Test GenChk UM062X/6-311+G(2d
 f,2p) Freq
 ----------------------------------------------------------------------

 Structure from the checkpoint file:  "/scratch/underkoffler.c/gaussian_scratch/Gau-1957.chk"
 ------------------------------
 Gaussian input prepared by ASE
 ------------------------------
 Charge =  0 Multiplicity = 2

                         Standard orientation:
 ---------------------------------------------------------------------
 Center     Atomic      Atomic             Coordinates (Angstroms)
 Number     Number       Type             X           Y           Z
 ---------------------------------------------------------------------
      1          8           0       -1.899839   -0.697597   -0.194647
      2          6           0        1.346366    0.618277    0.052031
      3          6           0       -1.207791    0.386085    0.426662
      4          6           0        1.695732   -0.879344    0.035831
      5          6           0       -0.056863    0.874749   -0.377325
      6          1           0        2.043616    1.161706   -0.584997
      7          1           0        1.492723    0.991587    1.071478
      8          1           0        2.713651   -1.050411    0.385041
      9          1           0        1.022773   -1.439168    0.687758
     10          1           0        1.607592   -1.284029   -0.972715
     11          1           0       -1.963799    1.163531    0.548758
     12          1           0       -0.869033    0.094567    1.427485
     13          1           0       -0.262829    1.291613   -1.354071
     14          1           0       -1.250643   -1.347223   -0.474754
 ---------------------------------------------------------------------

 SCF Done:  E(UM062X) =  -232.966443616     A.U. after    1 cycles

 The electronic state is 2-A.
 Alpha  occ. eigenvalues --  -19.61941 -10.58212 -10.54687 -10.54348 -10.53609
 Alpha  occ. eigenvalues --   -1.14279  -0.90590  -0.81932  -0.73753  -0.66109
 Alpha  occ. eigenvalues --   -0.59234  -0.53190  -0.52285  -0.50531  -0.48467
 Alpha  occ. eigenvalues --   -0.45202  -0.44323  -0.41099  -0.39270  -0.35737
 Alpha  occ. eigenvalues --   -0.25717
 Alpha virt. eigenvalues --    0.01398   0.02798   0.03290   0.03499   0.05849
 Alpha virt. eigenvalues --    0.06278   0.06714   0.07134   0.08337   0.10339
 Alpha virt. eigenvalues --    0.10680   0.11716   0.12147   0.12956   0.14677

  Beta  occ. eigenvalues --  -19.61796 -10.58276 -10.54413 -10.54028 -10.53514
  Beta  occ. eigenvalues --   -1.13733  -0.89169  -0.80822  -0.73146  -0.64497
  Beta  occ. eigenvalues --   -0.58653  -0.52255  -0.52016  -0.49391  -0.47917
  Beta  occ. eigenvalues --   -0.44398  -0.43583  -0.40666  -0.38732  -0.35149
  Beta virt. eigenvalues --   -0.02954   0.01218   0.03147   0.03348   0.03398
  Beta virt. eigenvalues --    0.05937   0.06327   0.06634   0.06952   0.08380
  Beta virt. eigenvalues --    0.10368   0.10518   0.11192   0.11946   0.12794

 Mulliken charges and spin densities:
               1          2
     1  O   -0.336089   0.029480
     2  C   -0.282447  -0.019807
     3  C   -0.234861  -0.018586
     4  C   -0.478086   0.040940
     5  C   -0.158844   0.989372
     6  H    0.147798   0.003393
     7  H    0.171259   0.024361
     8  H    0.144477   0.005083
     9  H    0.141672  -0.008503
    10  H    0.155178  -0.009708
    11  H    0.141115   0.016250
    12  H    0.146334  -0.000604
    13  H    0.196484  -0.055163
    14  H    0.246009   0.003493
 Sum of Mulliken charges =  -0.00000   1.00000

 Dipole moment (field-independent basis, Debye):
    X=              2.1048    Y=              0.1679    Z=              0.2059  Tot=              2.1215
 Quadrupole moment (field-independent basis, Debye-Ang):
   XX=            -37.7894   YY=            -32.1372   ZZ=            -32.3520
   XY=             -2.0033   XZ=             -0.8394   YZ=              0.3723

  Exact polarizability:  60.626  -0.987  54.122   0.205   0.117  49.163
 Approx polarizability:  63.479  -0.222  61.684   0.572   0.691  59.630

                      1                      2                      3
                      A                      A                      A
 Frequencies --     33.8894                99.7916               236.6316
 Red. masses --      3.4828                 1.7897                 1.1826
 Frc consts  --      0.0024                 0.0105                 0.0390
 IR Inten    --      0.7603                 0.1735                10.0901

                      4                      5                      6
                      A                      A                      A
 Frequencies --    299.2110               313.1654               352.4765
 Red. masses --      1.6488                 1.1003                 1.5937
 Frc consts  --      0.0870                 0.0636                 0.1167
 IR Inten    --     17.3870                71.7871                 9.0603

                      7                      8                      9
                      A                      A                      A
 Frequencies --    430.6862               553.0966               779.5926
 Red. masses --      2.1317                 3.2187                 1.1705
 Frc consts  --      0.2330                 0.5801                 0.4191
 IR Inten    --      6.1351                24.4505                 3.4552

                     10                     11                     12
                      A                      A                      A
 Frequencies --    849.5748               950.8038               989.1417
 Red. masses --      2.0213                 1.7481                 1.6083
 Frc consts  --      0.8596                 0.9311                 0.9271
 IR Inten    --      7.1832                11.5324                 3.9374

                     13                     14                     15
                      A                      A                      A
 Frequencies --   1046.0866              1055.0419              1139.4791
 Red. masses --      2.7908                 2.9299                 1.7056
 Frc consts  --      1.7994                 1.9215                 1.3048
 IR Inten    --     58.7370                44.3393                 2.9358

                     16                     17                     18
                      A                      A                      A
 Frequencies --   1158.0254              1207.8217              1285.0303
 Red. masses --      1.6005                 1.3225                 1.2086
 Frc consts  --      1.2646                 1.1367                 1.1759
 IR Inten    --     15.7034                14.8146                 1.1745

                     19                     20                     21
                      A                      A                      A
 Frequencies --   1337.4047              1340.6784              1390.2835
 Red. masses --      1.2113                 1.4011                 1.2481
 Frc consts  --      1.2766                 1.4838                 1.4214
 IR Inten    --      3.5671                 2.4447                21.9178

                     22                     23                     24
                      A                      A                      A
 Frequencies --   1402.3157              1436.1092              1486.6520
 Red. masses --      1.2147                 1.5723                 1.0767
 Frc consts  --      1.4073                 1.9106                 1.4020
 IR Inten    --      7.0437                20.0511                 2.8369

                     25                     26                     27
                      A                      A                      A
 Frequencies --   1503.0391              1511.3902              1516.3480
 Red. masses --      1.0528                 1.0719                 1.0977
 Frc consts  --      1.4014                 1.4427                 1.4871
 IR Inten    --      4.1632                 4.4408                 6.8580

                     28                     29                     30
                      A                      A                      A
 Frequencies --   3025.1260              3029.8205              3055.4298
 Red. masses --      1.0669                 1.0684                 1.0349
 Frc consts  --      5.7527                 5.7784                 5.6925
 IR Inten    --     23.1481                36.6716                18.6236

                     31                     32                     33
                      A                      A                      A
 Frequencies --   3087.9251              3103.6738              3127.8273
 Red. masses --      1.0949                 1.0936                 1.1012
 Frc consts  --      6.1509                 6.2065                 6.3476
 IR Inten    --     20.8862                 5.3284                36.0780

                     34                     35                     36
                      A                      A                      A
 Frequencies --   3134.6540              3197.1179              3883.5858
 Red. masses --      1.1030                 1.0886                 1.0666
 Frc consts  --      6.3858                 6.5557                 9.4779
 IR Inten    --     22.7950                11.8924                27.8316

 - Thermochemistry -
 -------------------
 Temperature   298.150 Kelvin.  Pressure   1.00000 Atm.
 Atom     1 has atomic number  8 and mass  15.99491

 Molecular mass:    73.06534 amu.
 Principal axes and moments of inertia in atomic units:
                           1         2         3
     Eigenvalues --   202.30274 597.27597 713.51933
           X            0.99947  -0.03209  -0.00502
           Y            0.03207   0.99948  -0.00254
           Z            0.00510   0.00238   0.99998
 This molecule is an asymmetric top.
 Rotational symmetry number  1.
 Rotational temperatures (Kelvin)      0.42814     0.14501     0.12139
 Rotational constants (GHZ):           8.92099     3.02162     2.52935
 Zero-point vibrational energy     325078.8 (Joules/Mol)
                                   77.69569 (Kcal/Mol)
 Warning -- explicit consideration of   8 degrees of freedom as
           vibrations may cause significant error
 Vibrational temperatures:     48.76   143.58   340.46   430.50   450.58
          (Kelvin)            507.14   619.66   795.78  1121.66  1222.35
                             1367.99  1423.15  1505.09  1517.97  1639.46
                             1666.14  1737.79  1848.87  1924.23  1928.94
                             2000.31  2017.62  2066.24  2138.96  2162.54
                             2174.55  2181.69  4352.48  4359.24  4396.08
                             4442.84  4465.49  4500.25  4510.07  4599.94
                             5587.61

 Zero-point correction=                           0.123816 (Hartree/Particle)
 Thermal correction to Energy=                    0.130833
 Thermal correction to Enthalpy=                  0.131777
 Thermal correction to Gibbs Free Energy=         0.092158
 Sum of electronic and zero-point Energies=           -232.842628
 Sum of electronic and thermal Energies=              -232.835611
 Sum of electronic and thermal Enthalpies=            -232.834667
 Sum of electronic and thermal Free Energies=         -232.874285

                     E (Thermal)             CV                S
                      KCal/Mol        Cal/Mol-Kelvin    Cal/Mol-Kelvin
 Total                   82.099             23.541             83.384
 Electronic               0.000              0.000              1.377
 Translational            0.889              2.981             38.783
 Rotational               0.889              2.981             25.958
 Vibrational             80.321             17.580             17.266
 Vibration     1          0.594              1.983              5.588
 Vibration     2          0.604              1.949              3.458
 Vibration     3          0.656              1.785              1.828
 Vibration     4          0.692              1.675              1.421
 Vibration     5          0.701              1.649              1.346
 Vibration     6          0.729              1.570              1.155
 Vibration     7          0.792              1.403              0.856
 Vibration     8          0.908              1.133              0.538

                           ! Non-Optimized Parameters !
 Normal termination of Gaussian 16 at Tue Apr  9 01:24:47 2019.
