 Gaussian 16, Revision A.03,
 Gaussian 16:  EM64L-G16RevA.03 25-Dec-2016

 ----------------------------------------------------------------------
 #p m062x/6-311+g(2df,2p) opt=(calcfc,verytight,gdiis,maxcycles=900) fr
 eq iop(7/33=1,2/16=3)
 ----------------------------------------------------------------------

 ------------------------------
 Gaussian input prepared by ASE
 ------------------------------
 Symbolic Z-matrix:
 Charge =  0 Multiplicity = 2

 SCF Done:  E(UM062X) =  -232.963474805     A.U. after   13 cycles
 SCF Done:  E(UM062X) =  -232.966549784     A.U. after   12 cycles
 SCF Done:  E(UM062X) =  -232.966655227     A.U. after   13 cycles
 SCF Done:  E(UM062X) =  -232.966993251     A.U. after   12 cycles
 SCF Done:  E(UM062X) =  -232.967018596     A.U. after   11 cycles
 SCF Done:  E(UM062X) =  -232.967020812     A.U. after   10 cycles
 SCF Done:  E(UM062X) =  -232.967021042     A.U. after    8 cycles
 SCF Done:  E(UM062X) =  -232.967021065     A.U. after    7 cycles
 SCF Done:  E(UM062X) =  -232.967021063     A.U. after    7 cycles
 SCF Done:  E(UM062X) =  -232.967021063     A.U. after    5 cycles
 SCF Done:  E(UM062X) =  -232.967021063     A.U. after    2 cycles
 SCF Done:  E(UM062X) =  -232.967021063     A.U. after    2 cycles
 SCF Done:  E(UM062X) =  -232.967021063     A.U. after    2 cycles
 Optimization completed.
    -- Stationary point found.
 Normal termination of Gaussian 16 at Tue Apr  9 01:09:57 2019.

 ----------------------------------------------------------------------
 #P Geom=AllCheck Guess=TCheck SCRF=Check Test GenChk UM062X/6-311+G(2d
 f,2p) Freq
 ----------------------------------------------------------------------

 Structure from the checkpoint file:  "/scratch/underkoffler.c/gaussian_scratch/Gau-20894.chk"
 ------------------------------
 Gaussian input prepared by ASE
 ------------------------------
 Charge =  0 Multiplicity = 2

                         Standard orientation:
 ---------------------------------------------------------------------
 Center     Atomic      Atomic             Coordinates (Angstroms)
 Number     Number       Type             X           Y           Z
 ---------------------------------------------------------------------
      1          8           0       -2.424628   -0.424747    0.071918
      2          6           0        1.236930    0.536058    0.056140
      3          6           0       -1.353099    0.494219   -0.039459
      4          6           0        2.442687   -0.399766    0.071204
      5          6           0       -0.039187   -0.167674   -0.241133
      6          1           0        1.409645    1.329666   -0.685220
      7          1           0        1.150790    1.055260    1.015857
      8          1           0        2.320143   -1.172362    0.830009
      9          1           0        2.556367   -0.894878   -0.893435
     10          1           0        3.363276    0.142220    0.281932
     11          1           0       -1.610760    1.131169   -0.894246
     12          1           0       -1.306787    1.154229    0.836507
     13          1           0       -0.021938   -1.044313   -0.879518
     14          1           0       -2.187705   -1.080040    0.732263
 ---------------------------------------------------------------------

 SCF Done:  E(UM062X) =  -232.967021063     A.U. after    1 cycles

 The electronic state is 2-A.
 Alpha  occ. eigenvalues --  -19.61977 -10.58381 -10.54546 -10.54202 -10.52835
 Alpha  occ. eigenvalues --   -1.14538  -0.90410  -0.82041  -0.72780  -0.66721
 Alpha  occ. eigenvalues --   -0.58830  -0.53412  -0.52739  -0.50922  -0.46953
 Alpha  occ. eigenvalues --   -0.45646  -0.42681  -0.41419  -0.39598  -0.35664
 Alpha  occ. eigenvalues --   -0.25343
 Alpha virt. eigenvalues --    0.01777   0.03040   0.03164   0.03979   0.05672
 Alpha virt. eigenvalues --    0.05989   0.06717   0.08316   0.08485   0.09364
 Alpha virt. eigenvalues --    0.10258   0.11818   0.12854   0.15014   0.16616

  Beta  occ. eigenvalues --  -19.61936 -10.58446 -10.54267 -10.53874 -10.52819
  Beta  occ. eigenvalues --   -1.14349  -0.89065  -0.81181  -0.72251  -0.64885
  Beta  occ. eigenvalues --   -0.58322  -0.52263  -0.52039  -0.50316  -0.46315
  Beta  occ. eigenvalues --   -0.45288  -0.41942  -0.41024  -0.39049  -0.35264
  Beta virt. eigenvalues --   -0.03721   0.01621   0.02798   0.02973   0.03633
  Beta virt. eigenvalues --    0.05304   0.05873   0.06658   0.07506   0.08614
  Beta virt. eigenvalues --    0.09180   0.09987   0.11021   0.12401   0.14860

 Mulliken charges and spin densities:
               1          2
     1  O   -0.357466   0.008380
     2  C   -0.266458  -0.046401
     3  C   -0.209080  -0.025327
     4  C   -0.478054   0.025038
     5  C   -0.125155   0.975750
     6  H    0.152160   0.046663
     7  H    0.150011   0.018973
     8  H    0.143299  -0.006439
     9  H    0.139912  -0.001769
    10  H    0.136327  -0.000809
    11  H    0.140805   0.041121
    12  H    0.131734   0.014266
    13  H    0.194413  -0.051913
    14  H    0.247553   0.002467
 Sum of Mulliken charges =  -0.00000   1.00000

 Dipole moment (field-independent basis, Debye):
    X=              1.7900    Y=              0.2374    Z=              0.6443  Tot=              1.9172
 Quadrupole moment (field-independent basis, Debye-Ang):
   XX=            -39.2874   YY=            -31.4068   ZZ=            -31.8898
   XY=              0.2070   XZ=             -1.8803   YZ=             -1.1438

  Exact polarizability:  64.757   0.014  53.086  -0.141  -0.445  47.359
 Approx polarizability:  62.788   1.053  62.244   0.076  -0.750  58.185

                      1                      2                      3
                      A                      A                      A
 Frequencies --     49.8964                70.7533               198.7681
 Red. masses --      1.9937                 2.4201                 2.5022
 Frc consts  --      0.0029                 0.0071                 0.0582
 IR Inten    --      0.5915                 2.6666                 1.8580

                      4                      5                      6
                      A                      A                      A
 Frequencies --    245.2838               326.3839               403.9173
 Red. masses --      1.1597                 1.1071                 3.1736
 Frc consts  --      0.0411                 0.0695                 0.3051
 IR Inten    --      1.6134               114.5018                 1.4769

                      7                      8                      9
                      A                      A                      A
 Frequencies --    449.3927               475.7599               767.5870
 Red. masses --      2.6891                 1.3669                 1.1699
 Frc consts  --      0.3200                 0.1823                 0.4061
 IR Inten    --     11.6716                23.1523                 1.6654

                     10                     11                     12
                      A                      A                      A
 Frequencies --    895.1173               948.5034              1031.6243
 Red. masses --      1.6750                 1.3926                 3.1196
 Frc consts  --      0.7907                 0.7382                 1.9561
 IR Inten    --      7.1963                14.2650                17.7568

                     13                     14                     15
                      A                      A                      A
 Frequencies --   1066.8327              1104.6736              1142.0004
 Red. masses --      1.4908                 4.4290                 2.0370
 Frc consts  --      0.9997                 3.1844                 1.5652
 IR Inten    --      1.6903                80.4403                10.9951

                     16                     17                     18
                      A                      A                      A
 Frequencies --   1159.4935              1192.2327              1272.6207
 Red. masses --      2.2230                 1.1126                 1.2450
 Frc consts  --      1.7609                 0.9318                 1.1880
 IR Inten    --      4.1392                13.8826                 1.2573

                     19                     20                     21
                      A                      A                      A
 Frequencies --   1281.3760              1363.8207              1401.4275
 Red. masses --      1.2392                 1.2613                 1.3254
 Frc consts  --      1.1988                 1.3823                 1.5337
 IR Inten    --      0.7659                15.2888                25.9542

                     22                     23                     24
                      A                      A                      A
 Frequencies --   1415.0503              1446.6257              1476.5470
 Red. masses --      1.2793                 1.7953                 1.0695
 Frc consts  --      1.5093                 2.2136                 1.3738
 IR Inten    --      2.6075                22.0497                 2.1920

                     25                     26                     27
                      A                      A                      A
 Frequencies --   1501.1046              1503.9276              1509.8608
 Red. masses --      1.0734                 1.0394                 1.0619
 Frc consts  --      1.4250                 1.3851                 1.4263
 IR Inten    --      3.1675                 7.5756                 4.9276

                     28                     29                     30
                      A                      A                      A
 Frequencies --   2977.9238              3000.5812              3024.3268
 Red. masses --      1.0714                 1.0577                 1.1010
 Frc consts  --      5.5978                 5.6109                 5.9335
 IR Inten    --     20.5868                44.9623                23.6970

                     31                     32                     33
                      A                      A                      A
 Frequencies --   3047.9051              3065.2793              3132.5032
 Red. masses --      1.0856                 1.0352                 1.1027
 Frc consts  --      5.9419                 5.7309                 6.3751
 IR Inten    --     18.3840                23.3747                23.2999

                     34                     35                     36
                      A                      A                      A
 Frequencies --   3141.7713              3168.7678              3885.4360
 Red. masses --      1.1024                 1.0872                 1.0663
 Frc consts  --      6.4112                 6.4319                 9.4843
 IR Inten    --     21.8864                11.8795                29.0313

 - Thermochemistry -
 -------------------
 Temperature   298.150 Kelvin.  Pressure   1.00000 Atm.
 Atom     1 has atomic number  8 and mass  15.99491

 Molecular mass:    73.06534 amu.
 Principal axes and moments of inertia in atomic units:
                           1         2         3
     Eigenvalues --   101.17941 886.69797 939.18324
           X            0.99994  -0.01051  -0.00184
           Y            0.01052   0.99991   0.00782
           Z            0.00176  -0.00784   0.99997
 This molecule is an asymmetric top.
 Rotational symmetry number  1.
 Rotational temperatures (Kelvin)      0.85604     0.09768     0.09222
 Rotational constants (GHZ):          17.83704     2.03535     1.92161
 Zero-point vibrational energy     323859.5 (Joules/Mol)
                                   77.40427 (Kcal/Mol)
 Warning -- explicit consideration of   8 degrees of freedom as
           vibrations may cause significant error
 Vibrational temperatures:     71.79   101.80   285.98   352.91   469.59
          (Kelvin)            581.15   646.58   684.51  1104.39  1287.87
                             1364.68  1484.28  1534.93  1589.38  1643.08
                             1668.25  1715.36  1831.02  1843.61  1962.23
                             2016.34  2035.94  2081.37  2124.42  2159.75
                             2163.82  2172.35  4284.57  4317.17  4351.33
                             4385.26  4410.25  4506.97  4520.31  4559.15
                             5590.28

 Zero-point correction=                           0.123352 (Hartree/Particle)
 Thermal correction to Energy=                    0.130473
 Thermal correction to Enthalpy=                  0.131417
 Thermal correction to Gibbs Free Energy=         0.091633
 Sum of electronic and zero-point Energies=           -232.843670
 Sum of electronic and thermal Energies=              -232.836548
 Sum of electronic and thermal Enthalpies=            -232.835604
 Sum of electronic and thermal Free Energies=         -232.875388

                     E (Thermal)             CV                S
                      KCal/Mol        Cal/Mol-Kelvin    Cal/Mol-Kelvin
 Total                   81.873             23.576             83.733
 Electronic               0.000              0.000              1.377
 Translational            0.889              2.981             38.783
 Rotational               0.889              2.981             25.936
 Vibrational             80.096             17.615             17.638
 Vibration     1          0.595              1.978              4.821
 Vibration     2          0.598              1.968              4.132
 Vibration     3          0.637              1.842              2.144
 Vibration     4          0.660              1.771              1.764
 Vibration     5          0.710              1.623              1.278
 Vibration     6          0.769              1.462              0.948
 Vibration     7          0.808              1.362              0.798
 Vibration     8          0.832              1.304              0.722

                           ! Non-Optimized Parameters !
 Normal termination of Gaussian 16 at Tue Apr  9 01:14:53 2019.
