 Gaussian 16, Revision A.03,
 Gaussian 16:  EM64L-G16RevA.03 25-Dec-2016

 ----------------------------------------------------------------------
 #p m062x/6-311+g(2df,2p) opt=(calcfc,verytight,gdiis,maxcycles=900) fr
 eq iop(7/33=1,2/16=3)
 ----------------------------------------------------------------------

 ------------------------------
 Gaussian input prepared by ASE
 ------------------------------
 Symbolic Z-matrix:
 Charge =  0 Multiplicity = 2

 SCF Done:  E(UM062X) =  -232.967385516     A.U. after   13 cycles
 SCF Done:  E(UM062X) =  -232.967387414     A.U. after   11 cycles
 SCF Done:  E(UM062X) =  -232.967387500     A.U. after    7 cycles
 SCF Done:  E(UM062X) =  -232.967387567     A.U. after    7 cycles
 SCF Done:  E(UM062X) =  -232.967387595     A.U. after    6 cycles
 SCF Done:  E(UM062X) =  -232.967387594     A.U. after    3 cycles
 SCF Done:  E(UM062X) =  -232.967387595     A.U. after    3 cycles
 SCF Done:  E(UM062X) =  -232.967387594     A.U. after    3 cycles
 SCF Done:  E(UM062X) =  -232.967387594     A.U. after    2 cycles
 Optimization completed.
    -- Stationary point found.
 Normal termination of Gaussian 16 at Wed Mar 13 04:18:00 2019.

 ----------------------------------------------------------------------
 #P Geom=AllCheck Guess=TCheck SCRF=Check Test GenChk UM062X/6-311+G(2d
 f,2p) Freq
 ----------------------------------------------------------------------

 Structure from the checkpoint file:  "/scratch/underkoffler.c/gaussian_scratch/Gau-5421.chk"
 ------------------------------
 Gaussian input prepared by ASE
 ------------------------------
 Charge =  0 Multiplicity = 2

                         Standard orientation:
 ---------------------------------------------------------------------
 Center     Atomic      Atomic             Coordinates (Angstroms)
 Number     Number       Type             X           Y           Z
 ---------------------------------------------------------------------
      1          8           0       -1.914565   -0.810076   -0.067413
      2          6           0        0.998144   -0.071320    0.526719
      3          6           0       -1.475111    0.536651    0.081376
      4          6           0        2.301364   -0.245168   -0.249458
      5          6           0       -0.028611    0.701512   -0.223329
      6          1           0        1.212555    0.438786    1.476931
      7          1           0        0.583762   -1.043792    0.801557
      8          1           0        2.128603   -0.796419   -1.173758
      9          1           0        3.042261   -0.787341    0.336259
     10          1           0        2.725513    0.723907   -0.514857
     11          1           0       -2.078085    1.209716   -0.533792
     12          1           0       -1.684109    0.777716    1.129307
     13          1           0        0.289447    1.530668   -0.843095
     14          1           0       -1.678139   -1.102687   -0.951093
 ---------------------------------------------------------------------

 SCF Done:  E(UM062X) =  -232.967387594     A.U. after    1 cycles

 The electronic state is 2-A.
 Alpha  occ. eigenvalues --  -19.62014 -10.58326 -10.54668 -10.53552 -10.52590
 Alpha  occ. eigenvalues --   -1.14441  -0.89987  -0.82008  -0.72824  -0.66424
 Alpha  occ. eigenvalues --   -0.57180  -0.54920  -0.52275  -0.50312  -0.48739
 Alpha  occ. eigenvalues --   -0.43408  -0.42241  -0.41659  -0.39511  -0.35530
 Alpha  occ. eigenvalues --   -0.25630
 Alpha virt. eigenvalues --    0.01851   0.02817   0.03714   0.03789   0.05783
 Alpha virt. eigenvalues --    0.06370   0.06675   0.08238   0.08771   0.09311
 Alpha virt. eigenvalues --    0.10735   0.11521   0.13240   0.14246   0.16612

  Beta  occ. eigenvalues --  -19.61917 -10.58393 -10.54016 -10.53607 -10.52566
  Beta  occ. eigenvalues --   -1.14052  -0.88589  -0.81104  -0.72288  -0.64695
  Beta  occ. eigenvalues --   -0.56731  -0.54051  -0.51044  -0.49688  -0.48289
  Beta  occ. eigenvalues --   -0.42988  -0.41763  -0.40904  -0.39003  -0.35148
  Beta virt. eigenvalues --   -0.03958   0.01606   0.02692   0.03265   0.03990
  Beta virt. eigenvalues --    0.05662   0.06159   0.06644   0.07506   0.08589
  Beta virt. eigenvalues --    0.08971   0.10279   0.10748   0.12683   0.14020

 Mulliken charges and spin densities:
               1          2
     1  O   -0.341808   0.024328
     2  C   -0.317094  -0.048742
     3  C   -0.200410  -0.038706
     4  C   -0.435627   0.027873
     5  C   -0.155372   1.000062
     6  H    0.153851   0.044285
     7  H    0.178532   0.012920
     8  H    0.138194  -0.006877
     9  H    0.135267   0.000216
    10  H    0.134728  -0.001487
    11  H    0.134397   0.004765
    12  H    0.142561   0.035396
    13  H    0.187702  -0.053318
    14  H    0.245078  -0.000715
 Sum of Mulliken charges =  -0.00000   1.00000

 Dipole moment (field-independent basis, Debye):
    X=              1.0673    Y=              0.9127    Z=             -0.8038  Tot=              1.6181
 Quadrupole moment (field-independent basis, Debye-Ang):
   XX=            -36.1843   YY=            -32.7648   ZZ=            -31.4354
   XY=             -2.2884   XZ=              2.1879   YZ=              1.4653

  Exact polarizability:  63.222  -1.050  51.092  -0.194   0.058  50.913
 Approx polarizability:  62.041   0.421  60.631  -0.215   0.260  61.288

                      1                      2                      3
                      A                      A                      A
 Frequencies --     31.6964                91.5448               221.4663
 Red. masses --      2.3622                 1.7960                 1.8132
 Frc consts  --      0.0014                 0.0089                 0.0524
 IR Inten    --      0.6396                 0.9251                 5.6982

                      4                      5                      6
                      A                      A                      A
 Frequencies --    248.5304               306.1492               329.4092
 Red. masses --      1.3059                 1.2122                 1.4716
 Frc consts  --      0.0475                 0.0669                 0.0941
 IR Inten    --      4.2775                56.8744                79.9557

                      7                      8                      9
                      A                      A                      A
 Frequencies --    422.2981               566.0636               774.1348
 Red. masses --      2.0818                 2.9885                 1.2388
 Frc consts  --      0.2187                 0.5642                 0.4374
 IR Inten    --     13.9199                16.5174                 2.8510

                     10                     11                     12
                      A                      A                      A
 Frequencies --    853.2419               961.7756              1005.2009
 Red. masses --      2.0369                 1.3817                 2.8338
 Frc consts  --      0.8737                 0.7530                 1.6870
 IR Inten    --      1.9863                19.3375                33.8087

                     13                     14                     15
                      A                      A                      A
 Frequencies --   1043.2682              1066.7374              1129.2652
 Red. masses --      1.6503                 2.1722                 2.3261
 Frc consts  --      1.0583                 1.4563                 1.7477
 IR Inten    --     13.4705                15.2435                17.7813

                     16                     17                     18
                      A                      A                      A
 Frequencies --   1160.7685              1212.6160              1270.8979
 Red. masses --      1.5772                 1.3540                 1.2169
 Frc consts  --      1.2521                 1.1731                 1.1581
 IR Inten    --     26.9835                14.5777                 0.7369

                     19                     20                     21
                      A                      A                      A
 Frequencies --   1313.8378              1365.9400              1409.6794
 Red. masses --      1.3950                 1.1976                 1.2618
 Frc consts  --      1.4188                 1.3165                 1.4773
 IR Inten    --      3.0236                 4.4446                34.0255

                     22                     23                     24
                      A                      A                      A
 Frequencies --   1413.5834              1429.0833              1478.1493
 Red. masses --      1.2606                 1.8842                 1.0698
 Frc consts  --      1.4842                 2.2673                 1.3772
 IR Inten    --      5.5285                 1.0179                 3.2382

                     25                     26                     27
                      A                      A                      A
 Frequencies --   1504.7975              1505.4518              1508.2218
 Red. masses --      1.0642                 1.0651                 1.0609
 Frc consts  --      1.4198                 1.4222                 1.4219
 IR Inten    --      6.0835                 3.9463                 5.8206

                     28                     29                     30
                      A                      A                      A
 Frequencies --   2981.1913              3027.2098              3062.6959
 Red. masses --      1.0718                 1.0591                 1.0361
 Frc consts  --      5.6121                 5.7183                 5.7260
 IR Inten    --     21.1057                37.6241                23.4950

                     31                     32                     33
                      A                      A                      A
 Frequencies --   3066.3376              3079.6096              3129.9095
 Red. masses --      1.1017                 1.0858                 1.1022
 Frc consts  --      6.1031                 6.0672                 6.3618
 IR Inten    --     33.0014                 3.8711                24.9404

                     34                     35                     36
                      A                      A                      A
 Frequencies --   3138.8684              3186.4994              3878.4078
 Red. masses --      1.1024                 1.0885                 1.0664
 Frc consts  --      6.3995                 6.5122                 9.4507
 IR Inten    --     22.4238                14.5005                27.2224

 - Thermochemistry -
 -------------------
 Temperature   298.150 Kelvin.  Pressure   1.00000 Atm.
 Atom     1 has atomic number  8 and mass  15.99491

 Molecular mass:    73.06534 amu.
 Principal axes and moments of inertia in atomic units:
                           1         2         3
     Eigenvalues --   149.78642 735.80474 795.30733
           X            0.99976  -0.02212  -0.00054
           Y            0.02213   0.99974   0.00582
           Z            0.00041  -0.00584   0.99998
 This molecule is an asymmetric top.
 Rotational symmetry number  1.
 Rotational temperatures (Kelvin)      0.57825     0.11771     0.10891
 Rotational constants (GHZ):          12.04876     2.45274     2.26924
 Zero-point vibrational energy     324035.7 (Joules/Mol)
                                   77.44639 (Kcal/Mol)
 Warning -- explicit consideration of   8 degrees of freedom as
           vibrations may cause significant error
 Vibrational temperatures:     45.60   131.71   318.64   357.58   440.48
          (Kelvin)            473.95   607.59   814.44  1113.81  1227.62
                             1383.78  1446.26  1501.03  1534.80  1624.76
                             1670.09  1744.68  1828.54  1890.32  1965.28
                             2028.21  2033.83  2056.13  2126.73  2165.07
                             2166.01  2169.99  4289.27  4355.48  4406.54
                             4411.78  4430.87  4503.24  4516.13  4584.66
                             5580.16

 Zero-point correction=                           0.123419 (Hartree/Particle)
 Thermal correction to Energy=                    0.130576
 Thermal correction to Enthalpy=                  0.131521
 Thermal correction to Gibbs Free Energy=         0.091477
 Sum of electronic and zero-point Energies=           -232.843969
 Sum of electronic and thermal Energies=              -232.836811
 Sum of electronic and thermal Enthalpies=            -232.835867
 Sum of electronic and thermal Free Energies=         -232.875910

                     E (Thermal)             CV                S
                      KCal/Mol        Cal/Mol-Kelvin    Cal/Mol-Kelvin
 Total                   81.938             23.684             84.278
 Electronic               0.000              0.000              1.377
 Translational            0.889              2.981             38.783
 Rotational               0.889              2.981             25.975
 Vibrational             80.160             17.722             18.143
 Vibration     1          0.594              1.983              5.720
 Vibration     2          0.602              1.955              3.627
 Vibration     3          0.648              1.808              1.947
 Vibration     4          0.662              1.765              1.741
 Vibration     5          0.697              1.662              1.383
 Vibration     6          0.712              1.617              1.263
 Vibration     7          0.785              1.422              0.884
 Vibration     8          0.922              1.105              0.512

                           ! Non-Optimized Parameters !
 Normal termination of Gaussian 16 at Wed Mar 13 04:23:01 2019.
