 Gaussian 16, Revision A.03,
 Gaussian 16:  EM64L-G16RevA.03 25-Dec-2016

 ----------------------------------------------
 #p m062x/6-311+g(2df,2p) Opt=(CalcFC,ModRedun)
 ----------------------------------------------

 ----------------------------------------
 Gaussian Input Prepared from Scan Object
 ----------------------------------------
 Symbolic Z-matrix:
 Charge =  0 Multiplicity = 2

 SCF Done:  E(UM062X) =  -232.967387594     A.U. after   13 cycles

  Exact polarizability:   0.000   0.000   0.000   0.000   0.000   0.000
 Approx polarizability:  62.041   0.421  60.631  -0.215   0.260  61.288

 Optimization completed.
    -- Stationary point found.
 SCF Done:  E(UM062X) =  -232.955021359     A.U. after   12 cycles
 SCF Done:  E(UM062X) =  -232.963132119     A.U. after   11 cycles
 SCF Done:  E(UM062X) =  -232.965254764     A.U. after   11 cycles
 SCF Done:  E(UM062X) =  -232.965284643     A.U. after   11 cycles
 SCF Done:  E(UM062X) =  -232.965287240     A.U. after   10 cycles
 SCF Done:  E(UM062X) =  -232.965287919     A.U. after    9 cycles
 Optimization completed.
 SCF Done:  E(UM062X) =  -232.949847932     A.U. after   12 cycles
 SCF Done:  E(UM062X) =  -232.958969792     A.U. after   11 cycles
 SCF Done:  E(UM062X) =  -232.962680335     A.U. after   12 cycles
 SCF Done:  E(UM062X) =  -232.965182993     A.U. after   12 cycles
 SCF Done:  E(UM062X) =  -232.965186912     A.U. after   10 cycles
 SCF Done:  E(UM062X) =  -232.965186895     A.U. after    9 cycles
    -- Stationary point found.
 SCF Done:  E(UM062X) =  -232.956486529     A.U. after   12 cycles
 SCF Done:  E(UM062X) =  -232.965407163     A.U. after   12 cycles
 SCF Done:  E(UM062X) =  -232.967361805     A.U. after   12 cycles
 SCF Done:  E(UM062X) =  -232.967384977     A.U. after   11 cycles
 SCF Done:  E(UM062X) =  -232.967387086     A.U. after   10 cycles
 SCF Done:  E(UM062X) =  -232.967387506     A.U. after    9 cycles
 SCF Done:  E(UM062X) =  -232.967387578     A.U. after    7 cycles
 Optimization completed.
    -- Stationary point found.

                         Standard orientation:
 ---------------------------------------------------------------------
 Center     Atomic      Atomic             Coordinates (Angstroms)
 Number     Number       Type             X           Y           Z
 ---------------------------------------------------------------------
      1          8           0       -1.914449   -0.810182   -0.067261
      2          6           0        0.998186   -0.070955    0.526850
      3          6           0       -1.475123    0.536620    0.081253
      4          6           0        2.301245   -0.245380   -0.249483
      5          6           0       -0.028631    0.701540   -0.223458
      6          1           0        1.212837    0.439714    1.476706
      7          1           0        0.583729   -1.043209    0.802344
      8          1           0        2.128223   -0.797132   -1.173435
      9          1           0        3.042218   -0.787288    0.336383
     10          1           0        2.725444    0.723493   -0.515542
     11          1           0       -2.078146    1.209497   -0.534070
     12          1           0       -1.684164    0.777883    1.129130
     13          1           0        0.289364    1.530497   -0.843522
     14          1           0       -1.677975   -1.102955   -0.950875
 ---------------------------------------------------------------------

 The electronic state is 2-A.
 Alpha  occ. eigenvalues --  -19.62014 -10.58326 -10.54668 -10.53553 -10.52590
 Alpha  occ. eigenvalues --   -1.14441  -0.89987  -0.82008  -0.72824  -0.66424
 Alpha  occ. eigenvalues --   -0.57180  -0.54921  -0.52274  -0.50312  -0.48739
 Alpha  occ. eigenvalues --   -0.43408  -0.42241  -0.41659  -0.39511  -0.35530
 Alpha  occ. eigenvalues --   -0.25630
 Alpha virt. eigenvalues --    0.01851   0.02817   0.03714   0.03789   0.05782
 Alpha virt. eigenvalues --    0.06370   0.06675   0.08237   0.08771   0.09312
 Alpha virt. eigenvalues --    0.10736   0.11521   0.13240   0.14245   0.16612

  Beta  occ. eigenvalues --  -19.61917 -10.58393 -10.54016 -10.53608 -10.52567
  Beta  occ. eigenvalues --   -1.14052  -0.88588  -0.81104  -0.72288  -0.64695
  Beta  occ. eigenvalues --   -0.56730  -0.54051  -0.51043  -0.49688  -0.48289
  Beta  occ. eigenvalues --   -0.42989  -0.41763  -0.40904  -0.39003  -0.35148
  Beta virt. eigenvalues --   -0.03958   0.01605   0.02692   0.03265   0.03990
  Beta virt. eigenvalues --    0.05662   0.06159   0.06644   0.07507   0.08589
  Beta virt. eigenvalues --    0.08971   0.10278   0.10749   0.12683   0.14019

 Mulliken charges and spin densities:
               1          2
     1  O   -0.341791   0.024337
     2  C   -0.317127  -0.048733
     3  C   -0.200401  -0.038714
     4  C   -0.435574   0.027884
     5  C   -0.155426   1.000071
     6  H    0.153850   0.044279
     7  H    0.178537   0.012902
     8  H    0.138185  -0.006879
     9  H    0.135267   0.000218
    10  H    0.134730  -0.001488
    11  H    0.134397   0.004764
    12  H    0.142568   0.035393
    13  H    0.187708  -0.053316
    14  H    0.245078  -0.000718
 Sum of Mulliken charges =  -0.00000   1.00000

 Dipole moment (field-independent basis, Debye):
    X=              1.0673    Y=              0.9127    Z=             -0.8040  Tot=              1.6182
 Quadrupole moment (field-independent basis, Debye-Ang):
   XX=            -36.1836   YY=            -32.7647   ZZ=            -31.4358
   XY=             -2.2879   XZ=              2.1881   YZ=              1.4654

 Normal termination of Gaussian 16 at Fri Mar 29 07:47:53 2019.
