 Gaussian 16, Revision A.03,
 Gaussian 16:  EM64L-G16RevA.03 25-Dec-2016

 ----------------------------------------------
 #p m062x/6-311+g(2df,2p) Opt=(CalcFC,ModRedun)
 ----------------------------------------------

 ----------------------------------------
 Gaussian Input Prepared from Scan Object
 ----------------------------------------
 Symbolic Z-matrix:
 Charge =  0 Multiplicity = 2

 SCF Done:  E(UM062X) =  -232.967387594     A.U. after   13 cycles

  Exact polarizability:   0.000   0.000   0.000   0.000   0.000   0.000
 Approx polarizability:  62.041   0.421  60.631  -0.215   0.260  61.288

 Optimization completed.
    -- Stationary point found.
 SCF Done:  E(UM062X) =  -232.965981720     A.U. after   11 cycles
 SCF Done:  E(UM062X) =  -232.967088684     A.U. after   11 cycles
 SCF Done:  E(UM062X) =  -232.967106232     A.U. after    9 cycles
 Optimization completed.
 SCF Done:  E(UM062X) =  -232.965152429     A.U. after   11 cycles
 SCF Done:  E(UM062X) =  -232.966298319     A.U. after   10 cycles
 SCF Done:  E(UM062X) =  -232.966321104     A.U. after    9 cycles
 SCF Done:  E(UM062X) =  -232.963942139     A.U. after   11 cycles
 SCF Done:  E(UM062X) =  -232.965176831     A.U. after   10 cycles
 SCF Done:  E(UM062X) =  -232.965207904     A.U. after    9 cycles
 SCF Done:  E(UM062X) =  -232.965171922     A.U. after    9 cycles
 SCF Done:  E(UM062X) =  -232.964987768     A.U. after   11 cycles
 SCF Done:  E(UM062X) =  -232.966290615     A.U. after   11 cycles
 SCF Done:  E(UM062X) =  -232.966307868     A.U. after    9 cycles
 SCF Done:  E(UM062X) =  -232.965909912     A.U. after   11 cycles
 SCF Done:  E(UM062X) =  -232.967091288     A.U. after   11 cycles
 SCF Done:  E(UM062X) =  -232.967104017     A.U. after    9 cycles
    -- Stationary point found.
 SCF Done:  E(UM062X) =  -232.966257069     A.U. after   11 cycles
 SCF Done:  E(UM062X) =  -232.967374916     A.U. after   11 cycles
 SCF Done:  E(UM062X) =  -232.967387580     A.U. after    9 cycles
 Optimization completed.
    -- Stationary point found.

                         Standard orientation:
 ---------------------------------------------------------------------
 Center     Atomic      Atomic             Coordinates (Angstroms)
 Number     Number       Type             X           Y           Z
 ---------------------------------------------------------------------
      1          8           0       -1.914537   -0.810053   -0.067444
      2          6           0        0.998164   -0.071459    0.526823
      3          6           0       -1.475099    0.536681    0.081335
      4          6           0        2.301254   -0.245121   -0.249541
      5          6           0       -0.028559    0.701531   -0.223172
      6          1           0        1.212653    0.438460    1.477103
      7          1           0        0.583898   -1.044035    0.801426
      8          1           0        2.128169   -0.796010   -1.173975
      9          1           0        3.042393   -0.787418    0.335754
     10          1           0        2.725238    0.724135   -0.514687
     11          1           0       -2.077983    1.209705   -0.533968
     12          1           0       -1.684258    0.777829    1.129215
     13          1           0        0.289584    1.530681   -0.842910
     14          1           0       -1.677954   -1.102717   -0.951066
 ---------------------------------------------------------------------

 The electronic state is 2-A.
 Alpha  occ. eigenvalues --  -19.62014 -10.58327 -10.54668 -10.53552 -10.52589
 Alpha  occ. eigenvalues --   -1.14442  -0.89987  -0.82008  -0.72823  -0.66425
 Alpha  occ. eigenvalues --   -0.57180  -0.54920  -0.52275  -0.50313  -0.48739
 Alpha  occ. eigenvalues --   -0.43407  -0.42240  -0.41659  -0.39512  -0.35530
 Alpha  occ. eigenvalues --   -0.25631
 Alpha virt. eigenvalues --    0.01851   0.02817   0.03714   0.03789   0.05783
 Alpha virt. eigenvalues --    0.06370   0.06675   0.08237   0.08771   0.09311
 Alpha virt. eigenvalues --    0.10735   0.11521   0.13240   0.14245   0.16612

  Beta  occ. eigenvalues --  -19.61917 -10.58394 -10.54017 -10.53607 -10.52566
  Beta  occ. eigenvalues --   -1.14052  -0.88589  -0.81104  -0.72287  -0.64695
  Beta  occ. eigenvalues --   -0.56731  -0.54051  -0.51045  -0.49689  -0.48289
  Beta  occ. eigenvalues --   -0.42988  -0.41762  -0.40904  -0.39003  -0.35148
  Beta virt. eigenvalues --   -0.03958   0.01605   0.02692   0.03265   0.03989
  Beta virt. eigenvalues --    0.05662   0.06159   0.06644   0.07506   0.08588
  Beta virt. eigenvalues --    0.08971   0.10279   0.10748   0.12683   0.14020

 Mulliken charges and spin densities:
               1          2
     1  O   -0.341805   0.024324
     2  C   -0.317165  -0.048747
     3  C   -0.200422  -0.038713
     4  C   -0.435563   0.027883
     5  C   -0.155344   1.000087
     6  H    0.153847   0.044276
     7  H    0.178532   0.012918
     8  H    0.138195  -0.006884
     9  H    0.135269   0.000217
    10  H    0.134718  -0.001491
    11  H    0.134395   0.004768
    12  H    0.142561   0.035401
    13  H    0.187706  -0.053325
    14  H    0.245076  -0.000714
 Sum of Mulliken charges =  -0.00000   1.00000

 Dipole moment (field-independent basis, Debye):
    X=              1.0674    Y=              0.9126    Z=             -0.8038  Tot=              1.6181
 Quadrupole moment (field-independent basis, Debye-Ang):
   XX=            -36.1852   YY=            -32.7644   ZZ=            -31.4357
   XY=             -2.2888   XZ=              2.1879   YZ=              1.4653

 Normal termination of Gaussian 16 at Fri Apr 12 20:59:29 2019.
