 Gaussian 16, Revision A.03,
 Gaussian 16:  EM64L-G16RevA.03 25-Dec-2016

 ----------------------------------------------
 #p m062x/6-311+g(2df,2p) Opt=(CalcFC,ModRedun)
 ----------------------------------------------

 ----------------------------------------
 Gaussian Input Prepared from Scan Object
 ----------------------------------------
 Symbolic Z-matrix:
 Charge =  0 Multiplicity = 2

 SCF Done:  E(UM062X) =  -232.967387594     A.U. after   13 cycles

  Exact polarizability:   0.000   0.000   0.000   0.000   0.000   0.000
 Approx polarizability:  62.041   0.421  60.631  -0.215   0.260  61.288

 Optimization completed.
    -- Stationary point found.
 SCF Done:  E(UM062X) =  -232.957603899     A.U. after   12 cycles
 SCF Done:  E(UM062X) =  -232.965910118     A.U. after   12 cycles
 SCF Done:  E(UM062X) =  -232.966733074     A.U. after   12 cycles
 SCF Done:  E(UM062X) =  -232.966747151     A.U. after   11 cycles
 SCF Done:  E(UM062X) =  -232.966751127     A.U. after   10 cycles
 SCF Done:  E(UM062X) =  -232.966751220     A.U. after    8 cycles
 Optimization completed.
 SCF Done:  E(UM062X) =  -232.954962658     A.U. after   12 cycles
 SCF Done:  E(UM062X) =  -232.963001155     A.U. after   12 cycles
 SCF Done:  E(UM062X) =  -232.964331113     A.U. after   12 cycles
 SCF Done:  E(UM062X) =  -232.967009084     A.U. after   10 cycles
 SCF Done:  E(UM062X) =  -232.967009381     A.U. after    9 cycles
 SCF Done:  E(UM062X) =  -232.967009567     A.U. after    8 cycles
    -- Stationary point found.
 SCF Done:  E(UM062X) =  -232.957979553     A.U. after   12 cycles
 SCF Done:  E(UM062X) =  -232.966464361     A.U. after   12 cycles
 SCF Done:  E(UM062X) =  -232.967328085     A.U. after   12 cycles
 SCF Done:  E(UM062X) =  -232.967326412     A.U. after   13 cycles
 SCF Done:  E(UM062X) =  -232.967382348     A.U. after   12 cycles
 SCF Done:  E(UM062X) =  -232.967387730     A.U. after   10 cycles
 SCF Done:  E(UM062X) =  -232.967387559     A.U. after   10 cycles
 Optimization completed.
    -- Stationary point found.

                         Standard orientation:
 ---------------------------------------------------------------------
 Center     Atomic      Atomic             Coordinates (Angstroms)
 Number     Number       Type             X           Y           Z
 ---------------------------------------------------------------------
      1          8           0       -1.914476   -0.810165   -0.067198
      2          6           0        0.998210   -0.070842    0.526762
      3          6           0       -1.475069    0.536606    0.081351
      4          6           0        2.301295   -0.245471   -0.249416
      5          6           0       -0.028637    0.701430   -0.223724
      6          1           0        1.212837    0.440013    1.476549
      7          1           0        0.583648   -1.042975    0.802490
      8          1           0        2.128430   -0.797454   -1.173255
      9          1           0        3.042227   -0.787192    0.336674
     10          1           0        2.725493    0.723350   -0.515669
     11          1           0       -2.078243    1.209592   -0.533680
     12          1           0       -1.683727    0.777653    1.129355
     13          1           0        0.289294    1.530589   -0.843538
     14          1           0       -1.678944   -1.102591   -0.951178
 ---------------------------------------------------------------------

 The electronic state is 2-A.
 Alpha  occ. eigenvalues --  -19.62014 -10.58326 -10.54667 -10.53551 -10.52589
 Alpha  occ. eigenvalues --   -1.14442  -0.89987  -0.82008  -0.72823  -0.66424
 Alpha  occ. eigenvalues --   -0.57182  -0.54920  -0.52273  -0.50312  -0.48738
 Alpha  occ. eigenvalues --   -0.43408  -0.42241  -0.41658  -0.39510  -0.35530
 Alpha  occ. eigenvalues --   -0.25631
 Alpha virt. eigenvalues --    0.01852   0.02817   0.03714   0.03790   0.05783
 Alpha virt. eigenvalues --    0.06370   0.06676   0.08238   0.08772   0.09311
 Alpha virt. eigenvalues --    0.10737   0.11522   0.13240   0.14246   0.16613

  Beta  occ. eigenvalues --  -19.61917 -10.58393 -10.54016 -10.53606 -10.52566
  Beta  occ. eigenvalues --   -1.14052  -0.88588  -0.81104  -0.72287  -0.64694
  Beta  occ. eigenvalues --   -0.56732  -0.54051  -0.51042  -0.49688  -0.48289
  Beta  occ. eigenvalues --   -0.42988  -0.41763  -0.40903  -0.39002  -0.35148
  Beta virt. eigenvalues --   -0.03959   0.01606   0.02692   0.03265   0.03991
  Beta virt. eigenvalues --    0.05662   0.06158   0.06645   0.07507   0.08589
  Beta virt. eigenvalues --    0.08971   0.10278   0.10749   0.12683   0.14020

 Mulliken charges and spin densities:
               1          2
     1  O   -0.341773   0.024334
     2  C   -0.317174  -0.048713
     3  C   -0.200418  -0.038675
     4  C   -0.435559   0.027870
     5  C   -0.155389   1.000030
     6  H    0.153842   0.044282
     7  H    0.178549   0.012895
     8  H    0.138192  -0.006877
     9  H    0.135262   0.000218
    10  H    0.134720  -0.001486
    11  H    0.134412   0.004758
    12  H    0.142575   0.035387
    13  H    0.187688  -0.053303
    14  H    0.245074  -0.000720
 Sum of Mulliken charges =  -0.00000   1.00000

 Dipole moment (field-independent basis, Debye):
    X=              1.0658    Y=              0.9134    Z=             -0.8043  Tot=              1.6178
 Quadrupole moment (field-independent basis, Debye-Ang):
   XX=            -36.1793   YY=            -32.7659   ZZ=            -31.4348
   XY=             -2.2867   XZ=              2.1912   YZ=              1.4657

 Normal termination of Gaussian 16 at Fri Mar 29 08:55:41 2019.
