 Gaussian 16, Revision A.03,
 Gaussian 16:  EM64L-G16RevA.03 25-Dec-2016

 ----------------------------------------------------------------------
 #p m062x/6-311+g(2df,2p) opt=(calcfc,verytight,gdiis,maxcycles=900) fr
 eq iop(7/33=1,2/16=3)
 ----------------------------------------------------------------------

 ------------------------------
 Gaussian input prepared by ASE
 ------------------------------
 Symbolic Z-matrix:
 Charge =  0 Multiplicity = 2

 SCF Done:  E(UM062X) =  -232.962100894     A.U. after   13 cycles
 SCF Done:  E(UM062X) =  -232.964962753     A.U. after   12 cycles
 SCF Done:  E(UM062X) =  -232.965662230     A.U. after   12 cycles
 SCF Done:  E(UM062X) =  -232.966257798     A.U. after   12 cycles
 SCF Done:  E(UM062X) =  -232.966464890     A.U. after   12 cycles
 SCF Done:  E(UM062X) =  -232.966580597     A.U. after   12 cycles
 SCF Done:  E(UM062X) =  -232.966644601     A.U. after   11 cycles
 SCF Done:  E(UM062X) =  -232.966698625     A.U. after   11 cycles
 SCF Done:  E(UM062X) =  -232.966721906     A.U. after   11 cycles
 SCF Done:  E(UM062X) =  -232.966734311     A.U. after   10 cycles
 SCF Done:  E(UM062X) =  -232.966737191     A.U. after    8 cycles
 SCF Done:  E(UM062X) =  -232.966737240     A.U. after    8 cycles
 SCF Done:  E(UM062X) =  -232.966737238     A.U. after    7 cycles
 SCF Done:  E(UM062X) =  -232.966737239     A.U. after    5 cycles
 SCF Done:  E(UM062X) =  -232.966737239     A.U. after    3 cycles
 SCF Done:  E(UM062X) =  -232.966737239     A.U. after    3 cycles
 SCF Done:  E(UM062X) =  -232.966737239     A.U. after    2 cycles
 SCF Done:  E(UM062X) =  -232.966737239     A.U. after    3 cycles
 SCF Done:  E(UM062X) =  -232.966737239     A.U. after    2 cycles
 Optimization completed.
    -- Stationary point found.
 Normal termination of Gaussian 16 at Tue Apr  9 01:08:06 2019.

 ----------------------------------------------------------------------
 #P Geom=AllCheck Guess=TCheck SCRF=Check Test GenChk UM062X/6-311+G(2d
 f,2p) Freq
 ----------------------------------------------------------------------

 Structure from the checkpoint file:  "/scratch/underkoffler.c/gaussian_scratch/Gau-28619.chk"
 ------------------------------
 Gaussian input prepared by ASE
 ------------------------------
 Charge =  0 Multiplicity = 2

                         Standard orientation:
 ---------------------------------------------------------------------
 Center     Atomic      Atomic             Coordinates (Angstroms)
 Number     Number       Type             X           Y           Z
 ---------------------------------------------------------------------
      1          8           0       -2.409219   -0.080020   -0.062118
      2          6           0        1.272544    0.637285    0.294317
      3          6           0       -1.062452   -0.467344    0.147352
      4          6           0        2.174120   -0.532897   -0.137344
      5          6           0       -0.087975    0.559686   -0.304008
      6          1           0        1.750217    1.577758    0.018004
      7          1           0        1.192261    0.628216    1.385696
      8          1           0        3.163302   -0.449681    0.312029
      9          1           0        1.742597   -1.486214    0.168258
     10          1           0        2.289580   -0.549275   -1.220901
     11          1           0       -0.880971   -0.710098    1.202914
     12          1           0       -0.947322   -1.402682   -0.412450
     13          1           0       -0.290389    1.046623   -1.250476
     14          1           0       -2.522939    0.805126    0.291959
 ---------------------------------------------------------------------

 SCF Done:  E(UM062X) =  -232.966737239     A.U. after    1 cycles

 The electronic state is 2-A.
 Alpha  occ. eigenvalues --  -19.61973 -10.58370 -10.54577 -10.54141 -10.53132
 Alpha  occ. eigenvalues --   -1.14519  -0.90475  -0.81593  -0.73666  -0.66070
 Alpha  occ. eigenvalues --   -0.59200  -0.53085  -0.52305  -0.50678  -0.47889
 Alpha  occ. eigenvalues --   -0.45244  -0.43883  -0.40843  -0.39358  -0.35710
 Alpha  occ. eigenvalues --   -0.25400
 Alpha virt. eigenvalues --    0.01437   0.02989   0.03255   0.03671   0.05846
 Alpha virt. eigenvalues --    0.06445   0.07151   0.07419   0.08231   0.10497
 Alpha virt. eigenvalues --    0.11229   0.11704   0.12141   0.12627   0.14741

  Beta  occ. eigenvalues --  -19.61918 -10.58436 -10.54207 -10.53907 -10.53033
  Beta  occ. eigenvalues --   -1.14279  -0.89067  -0.80590  -0.72933  -0.64519
  Beta  occ. eigenvalues --   -0.58648  -0.52088  -0.52028  -0.49846  -0.47202
  Beta  occ. eigenvalues --   -0.44293  -0.43288  -0.40411  -0.38851  -0.35281
  Beta virt. eigenvalues --   -0.03405   0.00960   0.03061   0.03309   0.03759
  Beta virt. eigenvalues --    0.05725   0.06372   0.06928   0.07280   0.08164
  Beta virt. eigenvalues --    0.10261   0.10729   0.11220   0.11635   0.12108

 Mulliken charges and spin densities:
               1          2
     1  O   -0.362058   0.009539
     2  C   -0.257715  -0.034240
     3  C   -0.197261  -0.028840
     4  C   -0.454880   0.060073
     5  C   -0.180992   0.976156
     6  H    0.146482   0.006196
     7  H    0.161732   0.015760
     8  H    0.135023   0.004962
     9  H    0.139238  -0.004002
    10  H    0.142044  -0.007329
    11  H    0.141444   0.012131
    12  H    0.144975   0.039472
    13  H    0.196567  -0.053800
    14  H    0.245401   0.003921
 Sum of Mulliken charges =   0.00000   1.00000

 Dipole moment (field-independent basis, Debye):
    X=              1.6823    Y=              0.7561    Z=              0.6297  Tot=              1.9489
 Quadrupole moment (field-independent basis, Debye-Ang):
   XX=            -37.4188   YY=            -31.8737   ZZ=            -32.6064
   XY=             -2.6666   XZ=             -1.6571   YZ=              0.0520

  Exact polarizability:  64.747  -1.696  52.203   0.464  -0.278  48.386
 Approx polarizability:  64.474  -1.126  61.064   0.876  -0.204  58.840

                      1                      2                      3
                      A                      A                      A
 Frequencies --     54.3435                70.5222               221.9258
 Red. masses --      2.1356                 3.0485                 1.1793
 Frc consts  --      0.0037                 0.0089                 0.0342
 IR Inten    --      0.1957                 1.9391                 1.1595

                      4                      5                      6
                      A                      A                      A
 Frequencies --    281.4729               318.4153               348.0073
 Red. masses --      1.5875                 1.3900                 1.9372
 Frc consts  --      0.0741                 0.0830                 0.1382
 IR Inten    --     33.0870                33.0386                55.8486

                      7                      8                      9
                      A                      A                      A
 Frequencies --    457.7054               553.9067               781.7282
 Red. masses --      1.6393                 2.3432                 1.1912
 Frc consts  --      0.2023                 0.4236                 0.4289
 IR Inten    --     14.9951                17.0341                 3.7855

                     10                     11                     12
                      A                      A                      A
 Frequencies --    887.6362               932.3117               984.1421
 Red. masses --      2.1694                 1.4472                 1.7334
 Frc consts  --      1.0071                 0.7412                 0.9892
 IR Inten    --     10.3481                16.3947                 4.3666

                     13                     14                     15
                      A                      A                      A
 Frequencies --   1045.8074              1100.2433              1149.8330
 Red. masses --      2.1717                 4.1855                 1.9070
 Frc consts  --      1.3994                 2.9852                 1.4855
 IR Inten    --      7.6296                99.3586                 6.4634

                     16                     17                     18
                      A                      A                      A
 Frequencies --   1158.9553              1191.3887              1278.2422
 Red. masses --      1.8814                 1.1162                 1.2615
 Frc consts  --      1.4889                 0.9335                 1.2144
 IR Inten    --      2.6515                16.5829                 0.5493

                     19                     20                     21
                      A                      A                      A
 Frequencies --   1335.0691              1339.9617              1383.8077
 Red. masses --      1.3358                 1.2702                 1.2456
 Frc consts  --      1.4028                 1.3438                 1.4054
 IR Inten    --      0.7537                 2.4570                24.5092

                     22                     23                     24
                      A                      A                      A
 Frequencies --   1406.3139              1443.0549              1487.7523
 Red. masses --      1.2160                 1.6622                 1.0764
 Frc consts  --      1.4169                 2.0394                 1.4037
 IR Inten    --     12.0517                19.5828                 1.9438

                     25                     26                     27
                      A                      A                      A
 Frequencies --   1501.3040              1503.4262              1510.8966
 Red. masses --      1.0613                 1.0518                 1.0894
 Frc consts  --      1.4093                 1.4008                 1.4652
 IR Inten    --      7.8914                 2.3448                 4.7495

                     28                     29                     30
                      A                      A                      A
 Frequencies --   2999.5258              3030.3423              3040.5035
 Red. masses --      1.0611                 1.0970                 1.0653
 Frc consts  --      5.6250                 5.9355                 5.8022
 IR Inten    --     42.0146                17.7896                22.4166

                     31                     32                     33
                      A                      A                      A
 Frequencies --   3062.2506              3097.2374              3135.9355
 Red. masses --      1.0341                 1.0965                 1.1029
 Frc consts  --      5.7136                 6.1972                 6.3900
 IR Inten    --     23.2797                 9.3752                31.1595

                     34                     35                     36
                      A                      A                      A
 Frequencies --   3137.4711              3183.1895              3884.2626
 Red. masses --      1.1033                 1.0878                 1.0663
 Frc consts  --      6.3988                 6.4944                 9.4787
 IR Inten    --     22.8305                12.6690                30.3441

 - Thermochemistry -
 -------------------
 Temperature   298.150 Kelvin.  Pressure   1.00000 Atm.
 Atom     1 has atomic number  8 and mass  15.99491

 Molecular mass:    73.06534 amu.
 Principal axes and moments of inertia in atomic units:
                           1         2         3
     Eigenvalues --   122.02450 796.11516 849.97001
           X            0.99993  -0.01150  -0.00396
           Y            0.01146   0.99988  -0.01085
           Z            0.00408   0.01080   0.99993
 This molecule is an asymmetric top.
 Rotational symmetry number  1.
 Rotational temperatures (Kelvin)      0.70981     0.10880     0.10190
 Rotational constants (GHZ):          14.78999     2.26693     2.12330
 Zero-point vibrational energy     324779.5 (Joules/Mol)
                                   77.62416 (Kcal/Mol)
 Warning -- explicit consideration of   8 degrees of freedom as
           vibrations may cause significant error
 Vibrational temperatures:     78.19   101.47   319.30   404.98   458.13
          (Kelvin)            500.70   658.54   796.95  1124.73  1277.11
                             1341.39  1415.96  1504.68  1583.00  1654.35
                             1667.48  1714.14  1839.11  1920.87  1927.91
                             1990.99  2023.37  2076.23  2140.54  2160.04
                             2163.09  2173.84  4315.65  4359.99  4374.61
                             4405.90  4456.23  4511.91  4514.12  4579.90
                             5588.59

 Zero-point correction=                           0.123702 (Hartree/Particle)
 Thermal correction to Energy=                    0.130743
 Thermal correction to Enthalpy=                  0.131687
 Thermal correction to Gibbs Free Energy=         0.092162
 Sum of electronic and zero-point Energies=           -232.843035
 Sum of electronic and thermal Energies=              -232.835995
 Sum of electronic and thermal Enthalpies=            -232.835050
 Sum of electronic and thermal Free Energies=         -232.874575

                     E (Thermal)             CV                S
                      KCal/Mol        Cal/Mol-Kelvin    Cal/Mol-Kelvin
 Total                   82.042             23.485             83.187
 Electronic               0.000              0.000              1.377
 Translational            0.889              2.981             38.783
 Rotational               0.889              2.981             25.915
 Vibrational             80.265             17.524             17.112
 Vibration     1          0.596              1.976              4.653
 Vibration     2          0.598              1.968              4.139
 Vibration     3          0.648              1.808              1.943
 Vibration     4          0.681              1.708              1.525
 Vibration     5          0.705              1.638              1.318
 Vibration     6          0.726              1.579              1.175
 Vibration     7          0.816              1.344              0.773
 Vibration     8          0.909              1.131              0.536

                           ! Non-Optimized Parameters !
 Normal termination of Gaussian 16 at Tue Apr  9 01:13:13 2019.
