 Gaussian 16, Revision A.03,
 Gaussian 16:  EM64L-G16RevA.03 25-Dec-2016

 ----------------------------------------------
 #p m062x/6-311+g(2df,2p) Opt=(CalcFC,ModRedun)
 ----------------------------------------------

 ----------------------------------------
 Gaussian Input Prepared from Scan Object
 ----------------------------------------
 Symbolic Z-matrix:
 Charge =  0 Multiplicity = 2

 SCF Done:  E(UM062X) =  -232.967387594     A.U. after   13 cycles

  Exact polarizability:   0.000   0.000   0.000   0.000   0.000   0.000
 Approx polarizability:  62.041   0.421  60.631  -0.215   0.260  61.288

 Optimization completed.
    -- Stationary point found.
 SCF Done:  E(UM062X) =  -232.966209546     A.U. after   11 cycles
 SCF Done:  E(UM062X) =  -232.967236192     A.U. after   11 cycles
 SCF Done:  E(UM062X) =  -232.967237240     A.U. after    9 cycles
 Optimization completed.
 SCF Done:  E(UM062X) =  -232.965772627     A.U. after   11 cycles
 SCF Done:  E(UM062X) =  -232.966809838     A.U. after   11 cycles
 SCF Done:  E(UM062X) =  -232.966812625     A.U. after    9 cycles
 SCF Done:  E(UM062X) =  -232.965114286     A.U. after   11 cycles
 SCF Done:  E(UM062X) =  -232.966192519     A.U. after   11 cycles
 SCF Done:  E(UM062X) =  -232.966194110     A.U. after    9 cycles
 SCF Done:  E(UM062X) =  -232.965635865     A.U. after   11 cycles
 SCF Done:  E(UM062X) =  -232.966795637     A.U. after   11 cycles
 SCF Done:  E(UM062X) =  -232.966795895     A.U. after    8 cycles
 SCF Done:  E(UM062X) =  -232.966140316     A.U. after   11 cycles
 SCF Done:  E(UM062X) =  -232.967231431     A.U. after   11 cycles
 SCF Done:  E(UM062X) =  -232.967233211     A.U. after   10 cycles
 SCF Done:  E(UM062X) =  -232.967233248     A.U. after    8 cycles
    -- Stationary point found.
 SCF Done:  E(UM062X) =  -232.966339964     A.U. after   11 cycles
 SCF Done:  E(UM062X) =  -232.967387091     A.U. after   11 cycles
 SCF Done:  E(UM062X) =  -232.967387601     A.U. after    9 cycles
 Optimization completed.
    -- Stationary point found.

                         Standard orientation:
 ---------------------------------------------------------------------
 Center     Atomic      Atomic             Coordinates (Angstroms)
 Number     Number       Type             X           Y           Z
 ---------------------------------------------------------------------
      1          8           0       -1.914573   -0.810032   -0.067486
      2          6           0        0.998103   -0.071483    0.526649
      3          6           0       -1.475103    0.536665    0.081444
      4          6           0        2.301414   -0.245062   -0.249431
      5          6           0       -0.028623    0.701479   -0.223308
      6          1           0        1.212373    0.438394    1.477018
      7          1           0        0.583746   -1.044048    0.801205
      8          1           0        2.128790   -0.796107   -1.173879
      9          1           0        3.042287   -0.787322    0.336236
     10          1           0        2.725528    0.724102   -0.514559
     11          1           0       -2.078101    1.209836   -0.533586
     12          1           0       -1.684021    0.777587    1.129426
     13          1           0        0.289459    1.530770   -0.842880
     14          1           0       -1.678225   -1.102551   -0.951219
 ---------------------------------------------------------------------

 The electronic state is 2-A.
 Alpha  occ. eigenvalues --  -19.62014 -10.58326 -10.54667 -10.53552 -10.52589
 Alpha  occ. eigenvalues --   -1.14442  -0.89987  -0.82008  -0.72824  -0.66424
 Alpha  occ. eigenvalues --   -0.57180  -0.54920  -0.52275  -0.50313  -0.48739
 Alpha  occ. eigenvalues --   -0.43408  -0.42241  -0.41659  -0.39511  -0.35530
 Alpha  occ. eigenvalues --   -0.25630
 Alpha virt. eigenvalues --    0.01851   0.02817   0.03714   0.03789   0.05783
 Alpha virt. eigenvalues --    0.06370   0.06675   0.08238   0.08772   0.09311
 Alpha virt. eigenvalues --    0.10735   0.11522   0.13240   0.14246   0.16612

  Beta  occ. eigenvalues --  -19.61917 -10.58393 -10.54016 -10.53607 -10.52566
  Beta  occ. eigenvalues --   -1.14052  -0.88589  -0.81105  -0.72288  -0.64695
  Beta  occ. eigenvalues --   -0.56731  -0.54051  -0.51044  -0.49688  -0.48289
  Beta  occ. eigenvalues --   -0.42988  -0.41763  -0.40904  -0.39002  -0.35148
  Beta virt. eigenvalues --   -0.03958   0.01606   0.02692   0.03265   0.03990
  Beta virt. eigenvalues --    0.05662   0.06159   0.06644   0.07506   0.08589
  Beta virt. eigenvalues --    0.08971   0.10279   0.10748   0.12683   0.14021

 Mulliken charges and spin densities:
               1          2
     1  O   -0.341817   0.024325
     2  C   -0.317083  -0.048740
     3  C   -0.200413  -0.038698
     4  C   -0.435651   0.027864
     5  C   -0.155343   1.000052
     6  H    0.153851   0.044287
     7  H    0.178534   0.012927
     8  H    0.138199  -0.006876
     9  H    0.135267   0.000214
    10  H    0.134727  -0.001487
    11  H    0.134396   0.004765
    12  H    0.142558   0.035398
    13  H    0.187695  -0.053317
    14  H    0.245080  -0.000715
 Sum of Mulliken charges =  -0.00000   1.00000

 Dipole moment (field-independent basis, Debye):
    X=              1.0672    Y=              0.9128    Z=             -0.8037  Tot=              1.6180
 Quadrupole moment (field-independent basis, Debye-Ang):
   XX=            -36.1841   YY=            -32.7648   ZZ=            -31.4352
   XY=             -2.2885   XZ=              2.1879   YZ=              1.4653

 Normal termination of Gaussian 16 at Fri Apr 12 19:49:10 2019.
