 Gaussian 16, Revision A.03,
 Gaussian 16:  EM64L-G16RevA.03 25-Dec-2016

 ----------------------------------------------
 #p m062x/6-311+g(2df,2p) Opt=(CalcFC,ModRedun)
 ----------------------------------------------

 ----------------------------------------
 Gaussian Input Prepared from Scan Object
 ----------------------------------------
 Symbolic Z-matrix:
 Charge =  0 Multiplicity = 2

 SCF Done:  E(UM062X) =  -232.967387594     A.U. after   13 cycles

  Exact polarizability:   0.000   0.000   0.000   0.000   0.000   0.000
 Approx polarizability:  62.041   0.421  60.631  -0.215   0.260  61.288

 Optimization completed.
    -- Stationary point found.
 SCF Done:  E(UM062X) =  -232.956170822     A.U. after   12 cycles
 SCF Done:  E(UM062X) =  -232.965821763     A.U. after   12 cycles
 SCF Done:  E(UM062X) =  -232.966254800     A.U. after   12 cycles
 SCF Done:  E(UM062X) =  -232.966267183     A.U. after   11 cycles
 SCF Done:  E(UM062X) =  -232.966267630     A.U. after    9 cycles
 SCF Done:  E(UM062X) =  -232.966267642     A.U. after    7 cycles
 Optimization completed.
 SCF Done:  E(UM062X) =  -232.953070291     A.U. after   12 cycles
 SCF Done:  E(UM062X) =  -232.963989565     A.U. after   12 cycles
 SCF Done:  E(UM062X) =  -232.964892729     A.U. after   12 cycles
 SCF Done:  E(UM062X) =  -232.965739560     A.U. after   10 cycles
 SCF Done:  E(UM062X) =  -232.965741040     A.U. after   10 cycles
 SCF Done:  E(UM062X) =  -232.965740923     A.U. after    9 cycles
 SCF Done:  E(UM062X) =  -232.965741148     A.U. after    9 cycles
 SCF Done:  E(UM062X) =  -232.965741167     A.U. after    7 cycles
    -- Stationary point found.
 SCF Done:  E(UM062X) =  -232.956562211     A.U. after   13 cycles
 SCF Done:  E(UM062X) =  -232.966610326     A.U. after   12 cycles
 SCF Done:  E(UM062X) =  -232.967008109     A.U. after   12 cycles
 SCF Done:  E(UM062X) =  -232.967012644     A.U. after   10 cycles
 SCF Done:  E(UM062X) =  -232.967012986     A.U. after    8 cycles
 Optimization completed.
    -- Stationary point found.

                         Standard orientation:
 ---------------------------------------------------------------------
 Center     Atomic      Atomic             Coordinates (Angstroms)
 Number     Number       Type             X           Y           Z
 ---------------------------------------------------------------------
      1          8           0       -2.425606   -0.424218   -0.066675
      2          6           0        1.237617    0.535943   -0.053365
      3          6           0       -1.352126    0.493100    0.037665
      4          6           0        2.443782   -0.399318   -0.071834
      5          6           0       -0.038609   -0.169988    0.238141
      6          1           0        1.152808    1.060395   -1.010380
      7          1           0        1.408990    1.325554    0.692574
      8          1           0        2.556121   -0.899728    0.890223
      9          1           0        3.364511    0.144141   -0.278141
     10          1           0        2.322637   -1.167767   -0.835060
     11          1           0       -1.306974    1.149830   -0.840940
     12          1           0       -1.607216    1.135044    0.889522
     13          1           0       -0.022540   -1.049896    0.871904
     14          1           0       -2.207473   -1.062250   -0.749940
 ---------------------------------------------------------------------

 The electronic state is 2-A.
 Alpha  occ. eigenvalues --  -19.61988 -10.58386 -10.54505 -10.54183 -10.52819
 Alpha  occ. eigenvalues --   -1.14546  -0.90392  -0.82033  -0.72762  -0.66680
 Alpha  occ. eigenvalues --   -0.58894  -0.53365  -0.52744  -0.50919  -0.46965
 Alpha  occ. eigenvalues --   -0.45548  -0.42681  -0.41399  -0.39630  -0.35660
 Alpha  occ. eigenvalues --   -0.25307
 Alpha virt. eigenvalues --    0.01781   0.03016   0.03171   0.03992   0.05677
 Alpha virt. eigenvalues --    0.05979   0.06720   0.08323   0.08517   0.09371
 Alpha virt. eigenvalues --    0.10269   0.11832   0.12834   0.15016   0.16649

  Beta  occ. eigenvalues --  -19.61949 -10.58451 -10.54248 -10.53832 -10.52802
  Beta  occ. eigenvalues --   -1.14365  -0.89046  -0.81177  -0.72234  -0.64835
  Beta  occ. eigenvalues --   -0.58395  -0.52226  -0.52034  -0.50318  -0.46325
  Beta  occ. eigenvalues --   -0.45185  -0.41945  -0.41004  -0.39089  -0.35259
  Beta virt. eigenvalues --   -0.03680   0.01627   0.02771   0.02982   0.03647
  Beta virt. eigenvalues --    0.05298   0.05861   0.06660   0.07524   0.08638
  Beta virt. eigenvalues --    0.09181   0.09991   0.11038   0.12387   0.14855

 Mulliken charges and spin densities:
               1          2
     1  O   -0.357048   0.007997
     2  C   -0.266567  -0.045951
     3  C   -0.206104  -0.025511
     4  C   -0.478246   0.024899
     5  C   -0.128049   0.975353
     6  H    0.149737   0.018998
     7  H    0.152034   0.046677
     8  H    0.139918  -0.001773
     9  H    0.136250  -0.000800
    10  H    0.143255  -0.006469
    11  H    0.132041   0.014654
    12  H    0.141117   0.041418
    13  H    0.194467  -0.051885
    14  H    0.247198   0.002394
 Sum of Mulliken charges =  -0.00000   1.00000

 Dipole moment (field-independent basis, Debye):
    X=              1.7547    Y=              0.2575    Z=             -0.6879  Tot=              1.9022
 Quadrupole moment (field-independent basis, Debye-Ang):
   XX=            -39.1688   YY=            -31.4808   ZZ=            -31.8312
   XY=              0.1960   XZ=              2.0216   YZ=              1.1649

 Normal termination of Gaussian 16 at Fri Mar 29 10:35:30 2019.
