 Gaussian 16, Revision A.03,
 Gaussian 16:  EM64L-G16RevA.03 25-Dec-2016

 ----------------------------------------------
 #p m062x/6-311+g(2df,2p) Opt=(CalcFC,ModRedun)
 ----------------------------------------------

 ----------------------------------------
 Gaussian Input Prepared from Scan Object
 ----------------------------------------
 Symbolic Z-matrix:
 Charge =  0 Multiplicity = 2

 SCF Done:  E(UM062X) =  -232.967387594     A.U. after   13 cycles

  Exact polarizability:   0.000   0.000   0.000   0.000   0.000   0.000
 Approx polarizability:  62.041   0.421  60.631  -0.215   0.260  61.288

 Optimization completed.
    -- Stationary point found.
 SCF Done:  E(UM062X) =  -232.958562394     A.U. after   12 cycles
 SCF Done:  E(UM062X) =  -232.966278948     A.U. after   12 cycles
 SCF Done:  E(UM062X) =  -232.967109429     A.U. after   12 cycles
 SCF Done:  E(UM062X) =  -232.967118321     A.U. after   10 cycles
 SCF Done:  E(UM062X) =  -232.967118504     A.U. after    8 cycles
 SCF Done:  E(UM062X) =  -232.967118558     A.U. after    8 cycles
 SCF Done:  E(UM062X) =  -232.967118561     A.U. after    7 cycles
 Optimization completed.
 SCF Done:  E(UM062X) =  -232.958398851     A.U. after   13 cycles
 SCF Done:  E(UM062X) =  -232.966151307     A.U. after   12 cycles
 SCF Done:  E(UM062X) =  -232.967160431     A.U. after   10 cycles
 SCF Done:  E(UM062X) =  -232.967160478     A.U. after    8 cycles
    -- Stationary point found.
 SCF Done:  E(UM062X) =  -232.958530905     A.U. after   13 cycles
 SCF Done:  E(UM062X) =  -232.965841325     A.U. after   12 cycles
 SCF Done:  E(UM062X) =  -232.967182212     A.U. after   12 cycles
 SCF Done:  E(UM062X) =  -232.967289230     A.U. after   12 cycles
 SCF Done:  E(UM062X) =  -232.967374342     A.U. after   12 cycles
 SCF Done:  E(UM062X) =  -232.967387420     A.U. after   11 cycles
 SCF Done:  E(UM062X) =  -232.967387621     A.U. after    8 cycles
 SCF Done:  E(UM062X) =  -232.967387587     A.U. after    8 cycles
 Optimization completed.
    -- Stationary point found.

                         Standard orientation:
 ---------------------------------------------------------------------
 Center     Atomic      Atomic             Coordinates (Angstroms)
 Number     Number       Type             X           Y           Z
 ---------------------------------------------------------------------
      1          8           0       -1.914472   -0.810138   -0.067352
      2          6           0        0.998157   -0.071171    0.526777
      3          6           0       -1.475127    0.536636    0.081313
      4          6           0        2.301295   -0.245249   -0.249475
      5          6           0       -0.028628    0.701563   -0.223340
      6          1           0        1.212674    0.439113    1.476864
      7          1           0        0.583734   -1.043567    0.801827
      8          1           0        2.128423   -0.796670   -1.173654
      9          1           0        3.042219   -0.787341    0.336282
     10          1           0        2.725479    0.723746   -0.515112
     11          1           0       -2.078119    1.209600   -0.533947
     12          1           0       -1.684188    0.777795    1.129210
     13          1           0        0.289389    1.530580   -0.843314
     14          1           0       -1.678016   -1.102827   -0.950998
 ---------------------------------------------------------------------

 The electronic state is 2-A.
 Alpha  occ. eigenvalues --  -19.62014 -10.58326 -10.54667 -10.53552 -10.52590
 Alpha  occ. eigenvalues --   -1.14442  -0.89987  -0.82008  -0.72824  -0.66424
 Alpha  occ. eigenvalues --   -0.57180  -0.54920  -0.52274  -0.50312  -0.48739
 Alpha  occ. eigenvalues --   -0.43408  -0.42241  -0.41659  -0.39511  -0.35530
 Alpha  occ. eigenvalues --   -0.25630
 Alpha virt. eigenvalues --    0.01851   0.02817   0.03714   0.03789   0.05783
 Alpha virt. eigenvalues --    0.06370   0.06675   0.08237   0.08771   0.09311
 Alpha virt. eigenvalues --    0.10735   0.11521   0.13240   0.14245   0.16612

  Beta  occ. eigenvalues --  -19.61917 -10.58393 -10.54016 -10.53607 -10.52566
  Beta  occ. eigenvalues --   -1.14052  -0.88588  -0.81104  -0.72288  -0.64695
  Beta  occ. eigenvalues --   -0.56731  -0.54051  -0.51044  -0.49688  -0.48289
  Beta  occ. eigenvalues --   -0.42989  -0.41763  -0.40904  -0.39003  -0.35148
  Beta virt. eigenvalues --   -0.03957   0.01605   0.02692   0.03265   0.03990
  Beta virt. eigenvalues --    0.05662   0.06159   0.06644   0.07507   0.08589
  Beta virt. eigenvalues --    0.08971   0.10279   0.10748   0.12683   0.14020

 Mulliken charges and spin densities:
               1          2
     1  O   -0.341801   0.024333
     2  C   -0.317096  -0.048745
     3  C   -0.200398  -0.038710
     4  C   -0.435611   0.027882
     5  C   -0.155414   1.000069
     6  H    0.153851   0.044281
     7  H    0.178535   0.012915
     8  H    0.138189  -0.006878
     9  H    0.135267   0.000217
    10  H    0.134729  -0.001488
    11  H    0.134396   0.004766
    12  H    0.142565   0.035395
    13  H    0.187710  -0.053320
    14  H    0.245078  -0.000716
 Sum of Mulliken charges =  -0.00000   1.00000

 Dipole moment (field-independent basis, Debye):
    X=              1.0673    Y=              0.9126    Z=             -0.8040  Tot=              1.6181
 Quadrupole moment (field-independent basis, Debye-Ang):
   XX=            -36.1838   YY=            -32.7649   ZZ=            -31.4354
   XY=             -2.2882   XZ=              2.1879   YZ=              1.4653

 Normal termination of Gaussian 16 at Fri Mar 29 07:33:43 2019.
