 Gaussian 16, Revision A.03,
 Gaussian 16:  EM64L-G16RevA.03 25-Dec-2016

 ----------------------------------------------------------------------
 #p m062x/6-311+g(2df,2p) opt=(calcfc,verytight,gdiis,maxcycles=900) fr
 eq iop(7/33=1,2/16=3)
 ----------------------------------------------------------------------

 ------------------------------
 Gaussian input prepared by ASE
 ------------------------------
 Symbolic Z-matrix:
 Charge =  0 Multiplicity = 2

 SCF Done:  E(UM062X) =  -232.956333114     A.U. after   14 cycles
 SCF Done:  E(UM062X) =  -232.963716738     A.U. after   11 cycles
 SCF Done:  E(UM062X) =  -232.964382257     A.U. after   12 cycles
 SCF Done:  E(UM062X) =  -232.964526736     A.U. after   11 cycles
 SCF Done:  E(UM062X) =  -232.964574190     A.U. after   11 cycles
 SCF Done:  E(UM062X) =  -232.964591098     A.U. after   11 cycles
 SCF Done:  E(UM062X) =  -232.964600285     A.U. after   10 cycles
 SCF Done:  E(UM062X) =  -232.964606345     A.U. after   11 cycles
 SCF Done:  E(UM062X) =  -232.964609611     A.U. after   10 cycles
 SCF Done:  E(UM062X) =  -232.964612194     A.U. after   10 cycles
 SCF Done:  E(UM062X) =  -232.964817340     A.U. after    9 cycles
 SCF Done:  E(UM062X) =  -232.964817420     A.U. after    8 cycles
 SCF Done:  E(UM062X) =  -232.964817421     A.U. after    7 cycles
 SCF Done:  E(UM062X) =  -232.964817421     A.U. after    6 cycles
 SCF Done:  E(UM062X) =  -232.964817421     A.U. after    3 cycles
 SCF Done:  E(UM062X) =  -232.964817421     A.U. after    3 cycles
 SCF Done:  E(UM062X) =  -232.964817421     A.U. after    3 cycles
 SCF Done:  E(UM062X) =  -232.964817421     A.U. after    2 cycles
 SCF Done:  E(UM062X) =  -232.964817421     A.U. after    2 cycles
 Optimization completed.
    -- Stationary point found.
 Normal termination of Gaussian 16 at Thu Mar  7 05:39:46 2019.

 ----------------------------------------------------------------------
 #P Geom=AllCheck Guess=TCheck SCRF=Check Test GenChk UM062X/6-311+G(2d
 f,2p) Freq
 ----------------------------------------------------------------------

 Structure from the checkpoint file:  "/scratch/underkoffler.c/gaussian_scratch/Gau-21976.chk"
 ------------------------------
 Gaussian input prepared by ASE
 ------------------------------
 Charge =  0 Multiplicity = 2

                         Standard orientation:
 ---------------------------------------------------------------------
 Center     Atomic      Atomic             Coordinates (Angstroms)
 Number     Number       Type             X           Y           Z
 ---------------------------------------------------------------------
      1          8           0        2.362898    0.054098   -0.077616
      2          6           0       -1.308177    0.622597    0.298566
      3          6           0        1.048605   -0.414579    0.169803
      4          6           0       -2.134879   -0.584173   -0.178117
      5          6           0        0.078715    0.628002   -0.239516
      6          1           0       -1.274674    0.605259    1.393397
      7          1           0       -1.819017    1.542467    0.014270
      8          1           0       -1.675199   -1.520155    0.140456
      9          1           0       -3.145265   -0.550885    0.228714
     10          1           0       -2.202883   -0.597921   -1.265840
     11          1           0        0.873879   -1.348749   -0.388215
     12          1           0        0.905824   -0.651758    1.233383
     13          1           0        0.346177    1.244361   -1.086717
     14          1           0        2.982388   -0.666485    0.047057
 ---------------------------------------------------------------------

 SCF Done:  E(UM062X) =  -232.964817421     A.U. after    1 cycles

 The electronic state is 2-A.
 Alpha  occ. eigenvalues --  -19.62128 -10.58480 -10.53769 -10.53647 -10.52771
 Alpha  occ. eigenvalues --   -1.14587  -0.90135  -0.81592  -0.73057  -0.64757
 Alpha  occ. eigenvalues --   -0.59705  -0.54778  -0.51990  -0.49815  -0.47492
 Alpha  occ. eigenvalues --   -0.44099  -0.43006  -0.41116  -0.39104  -0.35825
 Alpha  occ. eigenvalues --   -0.24362
 Alpha virt. eigenvalues --    0.01280   0.02237   0.03625   0.03943   0.05837
 Alpha virt. eigenvalues --    0.06430   0.06934   0.07618   0.08930   0.10988
 Alpha virt. eigenvalues --    0.11369   0.11756   0.12846   0.13360   0.15180

  Beta  occ. eigenvalues --  -19.62104 -10.58550 -10.53718 -10.53075 -10.52677
  Beta  occ. eigenvalues --   -1.14474  -0.88691  -0.80656  -0.72388  -0.63006
  Beta  occ. eigenvalues --   -0.59219  -0.53850  -0.51479  -0.49122  -0.47025
  Beta  occ. eigenvalues --   -0.43073  -0.42662  -0.40432  -0.38747  -0.35405
  Beta virt. eigenvalues --   -0.01649   0.01037   0.02367   0.03554   0.03812
  Beta virt. eigenvalues --    0.05746   0.06405   0.06695   0.07603   0.08919
  Beta virt. eigenvalues --    0.10796   0.11104   0.11463   0.12157   0.12897

 Mulliken charges and spin densities:
               1          2
     1  O   -0.353571   0.001470
     2  C   -0.250892  -0.037056
     3  C   -0.305561  -0.025395
     4  C   -0.450482   0.057125
     5  C   -0.083191   0.976405
     6  H    0.163346   0.020786
     7  H    0.146363   0.005192
     8  H    0.135393  -0.004457
     9  H    0.135109   0.003726
    10  H    0.142851  -0.007978
    11  H    0.140278   0.041212
    12  H    0.144483   0.018771
    13  H    0.192649  -0.052040
    14  H    0.243223   0.002237
 Sum of Mulliken charges =  -0.00000   1.00000

 Dipole moment (field-independent basis, Debye):
    X=             -0.6581    Y=             -1.6346    Z=              0.3603  Tot=              1.7986
 Quadrupole moment (field-independent basis, Debye-Ang):
   XX=            -32.1631   YY=            -32.5076   ZZ=            -33.0747
   XY=             -5.2417   XZ=              0.7700   YZ=             -0.8153

  Exact polarizability:  64.512  -0.220  51.762  -0.832  -0.642  48.066
 Approx polarizability:  64.224  -0.580  60.446  -1.136  -1.165  58.290

                      1                      2                      3
                      A                      A                      A
 Frequencies --     33.1931                72.6560               221.2756
 Red. masses --      2.2836                 2.6927                 1.3043
 Frc consts  --      0.0015                 0.0084                 0.0376
 IR Inten    --      4.4678                 0.7334                 1.8444

                      4                      5                      6
                      A                      A                      A
 Frequencies --    260.0826               272.7410               337.2808
 Red. masses --      1.2490                 1.0904                 2.9820
 Frc consts  --      0.0498                 0.0478                 0.1999
 IR Inten    --     26.3750               103.6134                 4.0955

                      7                      8                      9
                      A                      A                      A
 Frequencies --    401.7562               526.0387               779.2470
 Red. masses --      1.6877                 3.3521                 1.1901
 Frc consts  --      0.1605                 0.5465                 0.4258
 IR Inten    --     16.1320                 4.4476                 2.6710

                     10                     11                     12
                      A                      A                      A
 Frequencies --    896.1562               949.0325               984.7566
 Red. masses --      2.2657                 1.5004                 1.6679
 Frc consts  --      1.0721                 0.7962                 0.9530
 IR Inten    --      5.2170                 1.5850                 0.9825

                     13                     14                     15
                      A                      A                      A
 Frequencies --   1049.3847              1103.9012              1133.6787
 Red. masses --      2.1217                 3.9298                 1.5572
 Frc consts  --      1.3766                 2.8215                 1.1791
 IR Inten    --     11.5620                99.3153                 5.5049

                     16                     17                     18
                      A                      A                      A
 Frequencies --   1148.2811              1231.8992              1257.7147
 Red. masses --      1.8632                 1.1056                 1.2525
 Frc consts  --      1.4475                 0.9886                 1.1673
 IR Inten    --     12.1105                20.9606                19.7442

                     19                     20                     21
                      A                      A                      A
 Frequencies --   1298.7062              1341.9016              1363.0307
 Red. masses --      1.2046                 1.3260                 1.5102
 Frc consts  --      1.1970                 1.4068                 1.6531
 IR Inten    --     11.3580                 1.9353                 5.9787

                     22                     23                     24
                      A                      A                      A
 Frequencies --   1406.7940              1469.4304              1487.4916
 Red. masses --      1.2294                 1.7391                 1.0741
 Frc consts  --      1.4335                 2.2124                 1.4003
 IR Inten    --      1.5128                 4.2328                 2.1800

                     25                     26                     27
                      A                      A                      A
 Frequencies --   1503.0303              1507.4959              1511.7785
 Red. masses --      1.0517                 1.0627                 1.0901
 Frc consts  --      1.3999                 1.4229                 1.4678
 IR Inten    --      9.0081                 4.3451                 2.1081

                     28                     29                     30
                      A                      A                      A
 Frequencies --   2945.2781              2993.9126              3028.7836
 Red. masses --      1.0684                 1.0872                 1.0681
 Frc consts  --      5.4606                 5.7418                 5.7728
 IR Inten    --     44.0437                40.8162                25.5709

                     31                     32                     33
                      A                      A                      A
 Frequencies --   3060.5517              3099.4967              3133.3119
 Red. masses --      1.0341                 1.0937                 1.1023
 Frc consts  --      5.7073                 6.1907                 6.3759
 IR Inten    --     22.9211                 8.2623                36.2989

                     34                     35                     36
                      A                      A                      A
 Frequencies --   3135.6075              3207.9747              3911.2340
 Red. masses --      1.1033                 1.0885                 1.0666
 Frc consts  --      6.3915                 6.5999                 9.6138
 IR Inten    --     24.0616                 7.0148                41.5284

 - Thermochemistry -
 -------------------
 Temperature   298.150 Kelvin.  Pressure   1.00000 Atm.
 Atom     1 has atomic number  8 and mass  15.99491

 Molecular mass:    73.06534 amu.
 Principal axes and moments of inertia in atomic units:
                           1         2         3
     Eigenvalues --   123.78186 785.30631 844.15885
           X            0.99998  -0.00622   0.00285
           Y            0.00628   0.99970  -0.02365
           Z           -0.00270   0.02367   0.99972
 This molecule is an asymmetric top.
 Rotational symmetry number  1.
 Rotational temperatures (Kelvin)      0.69973     0.11029     0.10260
 Rotational constants (GHZ):          14.58001     2.29814     2.13792
 Zero-point vibrational energy     323379.8 (Joules/Mol)
                                   77.28963 (Kcal/Mol)
 Warning -- explicit consideration of   8 degrees of freedom as
           vibrations may cause significant error
 Vibrational temperatures:     47.76   104.54   318.37   374.20   392.41
          (Kelvin)            485.27   578.04   756.85  1121.16  1289.37
                             1365.45  1416.85  1509.83  1588.27  1631.11
                             1652.12  1772.43  1809.57  1868.55  1930.70
                             1961.10  2024.06  2114.18  2140.17  2162.53
                             2168.95  2175.11  4237.60  4307.57  4357.74
                             4403.45  4459.48  4508.14  4511.44  4615.56
                             5627.39

 Zero-point correction=                           0.123169 (Hartree/Particle)
 Thermal correction to Energy=                    0.130415
 Thermal correction to Enthalpy=                  0.131360
 Thermal correction to Gibbs Free Energy=         0.091075
 Sum of electronic and zero-point Energies=           -232.841649
 Sum of electronic and thermal Energies=              -232.834402
 Sum of electronic and thermal Enthalpies=            -232.833458
 Sum of electronic and thermal Free Energies=         -232.873742

                     E (Thermal)             CV                S
                      KCal/Mol        Cal/Mol-Kelvin    Cal/Mol-Kelvin
 Total                   81.837             23.805             84.786
 Electronic               0.000              0.000              1.377
 Translational            0.889              2.981             38.783
 Rotational               0.889              2.981             25.909
 Vibrational             80.059             17.843             18.717
 Vibration     1          0.594              1.983              5.629
 Vibration     2          0.599              1.967              4.080
 Vibration     3          0.648              1.809              1.949
 Vibration     4          0.668              1.746              1.661
 Vibration     5          0.676              1.724              1.579
 Vibration     6          0.718              1.601              1.225
 Vibration     7          0.767              1.466              0.956
 Vibration     8          0.881              1.192              0.596

                           ! Non-Optimized Parameters !
 Normal termination of Gaussian 16 at Thu Mar  7 06:54:51 2019.
