 Gaussian 16, Revision A.03,
 Gaussian 16:  EM64L-G16RevA.03 25-Dec-2016

 ----------------------------------------------
 #p m062x/6-311+g(2df,2p) Opt=(CalcFC,ModRedun)
 ----------------------------------------------

 ----------------------------------------
 Gaussian Input Prepared from Scan Object
 ----------------------------------------
 Symbolic Z-matrix:
 Charge =  0 Multiplicity = 2

 SCF Done:  E(UM062X) =  -232.969640333     A.U. after   14 cycles

  Exact polarizability:   0.000   0.000   0.000   0.000   0.000   0.000
 Approx polarizability:  62.464   1.087  61.495   0.121  -0.560  59.309

 Optimization completed.
    -- Stationary point found.
 SCF Done:  E(UM062X) =  -232.967870961     A.U. after   12 cycles
 SCF Done:  E(UM062X) =  -232.969082818     A.U. after   11 cycles
 SCF Done:  E(UM062X) =  -232.969101637     A.U. after    9 cycles
 Optimization completed.
 SCF Done:  E(UM062X) =  -232.966315480     A.U. after   11 cycles
 SCF Done:  E(UM062X) =  -232.967601737     A.U. after   11 cycles
 SCF Done:  E(UM062X) =  -232.967631760     A.U. after    9 cycles
 SCF Done:  E(UM062X) =  -232.967631901     A.U. after    8 cycles
 SCF Done:  E(UM062X) =  -232.964103367     A.U. after   11 cycles
 SCF Done:  E(UM062X) =  -232.965549992     A.U. after   11 cycles
 SCF Done:  E(UM062X) =  -232.965222772     A.U. after    8 cycles
 SCF Done:  E(UM062X) =  -232.966070759     A.U. after   11 cycles
 SCF Done:  E(UM062X) =  -232.967514559     A.U. after   11 cycles
 SCF Done:  E(UM062X) =  -232.967529660     A.U. after    9 cycles
 SCF Done:  E(UM062X) =  -232.967781921     A.U. after   12 cycles
 SCF Done:  E(UM062X) =  -232.969076867     A.U. after   11 cycles
 SCF Done:  E(UM062X) =  -232.969088794     A.U. after    9 cycles
    -- Stationary point found.
 SCF Done:  E(UM062X) =  -232.968406071     A.U. after   12 cycles
 SCF Done:  E(UM062X) =  -232.969627743     A.U. after   11 cycles
 SCF Done:  E(UM062X) =  -232.969640219     A.U. after    9 cycles
 Optimization completed.
    -- Stationary point found.

                         Standard orientation:
 ---------------------------------------------------------------------
 Center     Atomic      Atomic             Coordinates (Angstroms)
 Number     Number       Type             X           Y           Z
 ---------------------------------------------------------------------
      1          8           0        1.812388    0.879175    0.195204
      2          6           0        0.050706   -0.803176    0.252025
      3          6           0        1.472166   -0.443635   -0.163933
      4          6           0       -2.294170    0.304534    0.147904
      5          6           0       -0.967450    0.020579   -0.459208
      6          1           0       -0.048868   -0.671073    1.332711
      7          1           0       -0.108130   -1.872840    0.051452
      8          1           0        2.191756   -1.088902    0.337558
      9          1           0        1.585663   -0.592268   -1.244473
     10          1           0       -2.836638    1.074488   -0.398405
     11          1           0       -2.930715   -0.590151    0.162785
     12          1           0       -2.189377    0.625869    1.186355
     13          1           0       -0.846828    0.149387   -1.529289
     14          1           0        1.116532    1.462285   -0.121053
 ---------------------------------------------------------------------

 The electronic state is 2-A.
 Alpha  occ. eigenvalues --  -19.61540 -10.57961 -10.55039 -10.53771 -10.53435
 Alpha  occ. eigenvalues --   -1.14190  -0.90308  -0.82564  -0.73139  -0.65887
 Alpha  occ. eigenvalues --   -0.58327  -0.53852  -0.52487  -0.50509  -0.47842
 Alpha  occ. eigenvalues --   -0.46567  -0.42999  -0.42074  -0.39178  -0.34774
 Alpha  occ. eigenvalues --   -0.25278
 Alpha virt. eigenvalues --    0.01623   0.02772   0.03150   0.04214   0.05522
 Alpha virt. eigenvalues --    0.06249   0.06636   0.07417   0.08460   0.09409
 Alpha virt. eigenvalues --    0.10167   0.11865   0.13282   0.13749   0.16356

  Beta  occ. eigenvalues --  -19.61520 -10.57931 -10.54365 -10.53831 -10.53495
  Beta  occ. eigenvalues --   -1.14112  -0.88639  -0.82029  -0.72530  -0.63874
  Beta  occ. eigenvalues --   -0.58049  -0.52743  -0.51830  -0.49478  -0.46827
  Beta  occ. eigenvalues --   -0.46071  -0.42353  -0.41601  -0.38883  -0.34648
  Beta virt. eigenvalues --   -0.02308   0.01487   0.02611   0.02992   0.04101
  Beta virt. eigenvalues --    0.05480   0.06273   0.06624   0.07369   0.08204
  Beta virt. eigenvalues --    0.09304   0.10077   0.11553   0.13038   0.13572

 Mulliken charges and spin densities:
               1          2
     1  O   -0.345596   0.009014
     2  C   -0.335249  -0.058054
     3  C   -0.183470   0.018803
     4  C   -0.475913  -0.052955
     5  C   -0.128385   1.020866
     6  H    0.179735   0.005030
     7  H    0.152095   0.045620
     8  H    0.139939  -0.001478
     9  H    0.139983  -0.004636
    10  H    0.134045   0.008206
    11  H    0.138049   0.051881
    12  H    0.142196   0.020009
    13  H    0.190100  -0.060527
    14  H    0.252472  -0.001780
 Sum of Mulliken charges =  -0.00000   1.00000

 Dipole moment (field-independent basis, Debye):
    X=             -1.8336    Y=             -0.8662    Z=             -0.6797  Tot=              2.1388
 Quadrupole moment (field-independent basis, Debye-Ang):
   XX=            -36.7252   YY=            -31.9945   ZZ=            -32.7155
   XY=             -3.1794   XZ=             -1.1728   YZ=             -1.0997

 Normal termination of Gaussian 16 at Fri Apr 12 22:10:21 2019.
