 Gaussian 16, Revision A.03,
 Gaussian 16:  EM64L-G16RevA.03 25-Dec-2016

 ----------------------------------------------
 #p m062x/6-311+g(2df,2p) Opt=(CalcFC,ModRedun)
 ----------------------------------------------

 ----------------------------------------
 Gaussian Input Prepared from Scan Object
 ----------------------------------------
 Symbolic Z-matrix:
 Charge =  0 Multiplicity = 2

 SCF Done:  E(UM062X) =  -232.969640333     A.U. after   14 cycles

  Exact polarizability:   0.000   0.000   0.000   0.000   0.000   0.000
 Approx polarizability:  62.464   1.087  61.495   0.121  -0.560  59.309

 Optimization completed.
    -- Stationary point found.
 SCF Done:  E(UM062X) =  -232.959849276     A.U. after   13 cycles
 SCF Done:  E(UM062X) =  -232.967580577     A.U. after   12 cycles
 SCF Done:  E(UM062X) =  -232.968899593     A.U. after   12 cycles
 SCF Done:  E(UM062X) =  -232.969020351     A.U. after   11 cycles
 SCF Done:  E(UM062X) =  -232.969033449     A.U. after   11 cycles
 SCF Done:  E(UM062X) =  -232.969034427     A.U. after   10 cycles
 Optimization completed.
 SCF Done:  E(UM062X) =  -232.958988573     A.U. after   12 cycles
 SCF Done:  E(UM062X) =  -232.966949834     A.U. after   12 cycles
 SCF Done:  E(UM062X) =  -232.967706168     A.U. after   12 cycles
 SCF Done:  E(UM062X) =  -232.968827381     A.U. after   10 cycles
 SCF Done:  E(UM062X) =  -232.968827442     A.U. after    8 cycles
 SCF Done:  E(UM062X) =  -232.968827446     A.U. after    8 cycles
    -- Stationary point found.
 SCF Done:  E(UM062X) =  -232.960934221     A.U. after   13 cycles
 SCF Done:  E(UM062X) =  -232.968822916     A.U. after   12 cycles
 SCF Done:  E(UM062X) =  -232.969594493     A.U. after   12 cycles
 SCF Done:  E(UM062X) =  -232.969633834     A.U. after   10 cycles
 SCF Done:  E(UM062X) =  -232.969638829     A.U. after   11 cycles
 SCF Done:  E(UM062X) =  -232.969640297     A.U. after   10 cycles
 SCF Done:  E(UM062X) =  -232.969640327     A.U. after    8 cycles
 Optimization completed.
    -- Stationary point found.

                         Standard orientation:
 ---------------------------------------------------------------------
 Center     Atomic      Atomic             Coordinates (Angstroms)
 Number     Number       Type             X           Y           Z
 ---------------------------------------------------------------------
      1          8           0        1.812905   -0.879013   -0.195191
      2          6           0        0.050487    0.803141   -0.252099
      3          6           0        1.471991    0.443584    0.163841
      4          6           0       -2.294194   -0.304900   -0.147992
      5          6           0       -0.967784   -0.020168    0.459404
      6          1           0       -0.049436    0.671224   -1.332799
      7          1           0       -0.108335    1.872806   -0.051566
      8          1           0        2.191354    1.089021   -0.337773
      9          1           0        1.585923    0.592588    1.244336
     10          1           0       -2.931196    0.589444   -0.163171
     11          1           0       -2.188961   -0.626393   -1.186348
     12          1           0       -2.836394   -1.075054    0.398312
     13          1           0       -0.847239   -0.148738    1.529528
     14          1           0        1.118046   -1.462733    0.122085
 ---------------------------------------------------------------------

 The electronic state is 2-A.
 Alpha  occ. eigenvalues --  -19.61543 -10.57962 -10.55035 -10.53770 -10.53434
 Alpha  occ. eigenvalues --   -1.14192  -0.90307  -0.82563  -0.73139  -0.65885
 Alpha  occ. eigenvalues --   -0.58330  -0.53850  -0.52485  -0.50507  -0.47840
 Alpha  occ. eigenvalues --   -0.46569  -0.42997  -0.42075  -0.39176  -0.34776
 Alpha  occ. eigenvalues --   -0.25272
 Alpha virt. eigenvalues --    0.01622   0.02772   0.03150   0.04214   0.05522
 Alpha virt. eigenvalues --    0.06249   0.06636   0.07417   0.08460   0.09411
 Alpha virt. eigenvalues --    0.10167   0.11866   0.13282   0.13748   0.16357

  Beta  occ. eigenvalues --  -19.61523 -10.57932 -10.54361 -10.53831 -10.53493
  Beta  occ. eigenvalues --   -1.14115  -0.88638  -0.82028  -0.72531  -0.63871
  Beta  occ. eigenvalues --   -0.58052  -0.52742  -0.51828  -0.49475  -0.46825
  Beta  occ. eigenvalues --   -0.46074  -0.42351  -0.41602  -0.38880  -0.34650
  Beta virt. eigenvalues --   -0.02306   0.01487   0.02611   0.02992   0.04102
  Beta virt. eigenvalues --    0.05480   0.06273   0.06624   0.07369   0.08204
  Beta virt. eigenvalues --    0.09306   0.10076   0.11553   0.13039   0.13571

 Mulliken charges and spin densities:
               1          2
     1  O   -0.345523   0.008979
     2  C   -0.335259  -0.058041
     3  C   -0.183420   0.018830
     4  C   -0.475801  -0.052960
     5  C   -0.128513   1.020880
     6  H    0.179683   0.005028
     7  H    0.152122   0.045619
     8  H    0.139925  -0.001476
     9  H    0.139998  -0.004640
    10  H    0.138044   0.051883
    11  H    0.142184   0.019998
    12  H    0.134024   0.008220
    13  H    0.190088  -0.060545
    14  H    0.252447  -0.001776
 Sum of Mulliken charges =  -0.00000   1.00000

 Dipole moment (field-independent basis, Debye):
    X=             -1.8321    Y=              0.8643    Z=              0.6808  Tot=              2.1370
 Quadrupole moment (field-independent basis, Debye-Ang):
   XX=            -36.7275   YY=            -31.9905   ZZ=            -32.7149
   XY=              3.1741   XZ=              1.1760   YZ=             -1.1028

 Normal termination of Gaussian 16 at Fri Mar 29 09:24:34 2019.
