 Gaussian 16, Revision A.03,
 Gaussian 16:  EM64L-G16RevA.03 25-Dec-2016

 ----------------------------------------------
 #p m062x/6-311+g(2df,2p) Opt=(CalcFC,ModRedun)
 ----------------------------------------------

 ----------------------------------------
 Gaussian Input Prepared from Scan Object
 ----------------------------------------
 Symbolic Z-matrix:
 Charge =  0 Multiplicity = 2

 SCF Done:  E(UM062X) =  -232.969640333     A.U. after   14 cycles

  Exact polarizability:   0.000   0.000   0.000   0.000   0.000   0.000
 Approx polarizability:  62.464   1.087  61.495   0.121  -0.560  59.309

 Optimization completed.
    -- Stationary point found.
 SCF Done:  E(UM062X) =  -232.968454170     A.U. after   11 cycles
 SCF Done:  E(UM062X) =  -232.969454501     A.U. after   10 cycles
 SCF Done:  E(UM062X) =  -232.969460032     A.U. after    9 cycles
 Optimization completed.
 SCF Done:  E(UM062X) =  -232.967922906     A.U. after   11 cycles
 SCF Done:  E(UM062X) =  -232.968949897     A.U. after   10 cycles
 SCF Done:  E(UM062X) =  -232.968956300     A.U. after    9 cycles
 SCF Done:  E(UM062X) =  -232.967173313     A.U. after   11 cycles
 SCF Done:  E(UM062X) =  -232.968247100     A.U. after   10 cycles
 SCF Done:  E(UM062X) =  -232.968253696     A.U. after    9 cycles
 SCF Done:  E(UM062X) =  -232.968274598     A.U. after    8 cycles
 SCF Done:  E(UM062X) =  -232.967961008     A.U. after   11 cycles
 SCF Done:  E(UM062X) =  -232.968971583     A.U. after   10 cycles
 SCF Done:  E(UM062X) =  -232.968976474     A.U. after    9 cycles
 SCF Done:  E(UM062X) =  -232.968461982     A.U. after   11 cycles
 SCF Done:  E(UM062X) =  -232.969460011     A.U. after   10 cycles
 SCF Done:  E(UM062X) =  -232.969464581     A.U. after    9 cycles
    -- Stationary point found.
 SCF Done:  E(UM062X) =  -232.968642656     A.U. after   11 cycles
 SCF Done:  E(UM062X) =  -232.969636060     A.U. after   10 cycles
 SCF Done:  E(UM062X) =  -232.969640321     A.U. after   10 cycles
 Optimization completed.
    -- Stationary point found.

                         Standard orientation:
 ---------------------------------------------------------------------
 Center     Atomic      Atomic             Coordinates (Angstroms)
 Number     Number       Type             X           Y           Z
 ---------------------------------------------------------------------
      1          8           0        1.813074   -0.878848   -0.195203
      2          6           0        0.050468    0.802969   -0.252093
      3          6           0        1.471959    0.443641    0.163935
      4          6           0       -2.294321   -0.304712   -0.147938
      5          6           0       -0.967704   -0.020570    0.459289
      6          1           0       -0.049355    0.671119   -1.332817
      7          1           0       -0.108479    1.872608   -0.051474
      8          1           0        2.191287    1.089239   -0.337534
      9          1           0        1.585770    0.592669    1.244449
     10          1           0       -2.836811   -1.074596    0.398450
     11          1           0       -2.930910    0.589937   -0.163069
     12          1           0       -2.189377   -0.626272   -1.186304
     13          1           0       -0.847133   -0.149168    1.529408
     14          1           0        1.117998   -1.462717    0.121357
 ---------------------------------------------------------------------

 The electronic state is 2-A.
 Alpha  occ. eigenvalues --  -19.61543 -10.57962 -10.55036 -10.53770 -10.53434
 Alpha  occ. eigenvalues --   -1.14192  -0.90308  -0.82563  -0.73139  -0.65886
 Alpha  occ. eigenvalues --   -0.58329  -0.53850  -0.52486  -0.50508  -0.47841
 Alpha  occ. eigenvalues --   -0.46569  -0.42998  -0.42075  -0.39175  -0.34776
 Alpha  occ. eigenvalues --   -0.25274
 Alpha virt. eigenvalues --    0.01623   0.02772   0.03150   0.04213   0.05522
 Alpha virt. eigenvalues --    0.06249   0.06636   0.07417   0.08461   0.09410
 Alpha virt. eigenvalues --    0.10167   0.11866   0.13282   0.13750   0.16356

  Beta  occ. eigenvalues --  -19.61523 -10.57931 -10.54362 -10.53831 -10.53493
  Beta  occ. eigenvalues --   -1.14115  -0.88639  -0.82028  -0.72531  -0.63872
  Beta  occ. eigenvalues --   -0.58052  -0.52742  -0.51830  -0.49475  -0.46826
  Beta  occ. eigenvalues --   -0.46073  -0.42352  -0.41602  -0.38879  -0.34650
  Beta virt. eigenvalues --   -0.02308   0.01487   0.02611   0.02992   0.04101
  Beta virt. eigenvalues --    0.05480   0.06273   0.06624   0.07369   0.08204
  Beta virt. eigenvalues --    0.09305   0.10077   0.11553   0.13038   0.13573

 Mulliken charges and spin densities:
               1          2
     1  O   -0.345552   0.008988
     2  C   -0.335299  -0.058013
     3  C   -0.183452   0.018803
     4  C   -0.475877  -0.052940
     5  C   -0.128363   1.020813
     6  H    0.179698   0.005037
     7  H    0.152131   0.045628
     8  H    0.139925  -0.001477
     9  H    0.139978  -0.004635
    10  H    0.134037   0.008208
    11  H    0.138042   0.051881
    12  H    0.142193   0.020006
    13  H    0.190084  -0.060522
    14  H    0.252454  -0.001776
 Sum of Mulliken charges =  -0.00000   1.00000

 Dipole moment (field-independent basis, Debye):
    X=             -1.8329    Y=              0.8644    Z=              0.6801  Tot=              2.1376
 Quadrupole moment (field-independent basis, Debye-Ang):
   XX=            -36.7289   YY=            -31.9899   ZZ=            -32.7154
   XY=              3.1740   XZ=              1.1750   YZ=             -1.1004

 Normal termination of Gaussian 16 at Fri Apr 12 21:45:30 2019.
