 Gaussian 16, Revision A.03,
 Gaussian 16:  EM64L-G16RevA.03 25-Dec-2016

 ----------------------------------------------------------------------
 #p m062x/6-311+g(2df,2p) opt=(calcfc,verytight,gdiis,maxcycles=900) fr
 eq iop(7/33=1,2/16=3)
 ----------------------------------------------------------------------

 ------------------------------
 Gaussian input prepared by ASE
 ------------------------------
 Symbolic Z-matrix:
 Charge =  0 Multiplicity = 2

 SCF Done:  E(UM062X) =  -232.960219298     A.U. after   13 cycles
 SCF Done:  E(UM062X) =  -232.965457320     A.U. after   12 cycles
 SCF Done:  E(UM062X) =  -232.964821374     A.U. after   14 cycles
 SCF Done:  E(UM062X) =  -232.966332056     A.U. after   13 cycles
 SCF Done:  E(UM062X) =  -232.962574351     A.U. after   14 cycles
 SCF Done:  E(UM062X) =  -232.966981367     A.U. after   13 cycles
 SCF Done:  E(UM062X) =  -232.967144112     A.U. after   11 cycles
 SCF Done:  E(UM062X) =  -232.967267904     A.U. after   11 cycles
 SCF Done:  E(UM062X) =  -232.967295618     A.U. after   11 cycles
 SCF Done:  E(UM062X) =  -232.967315127     A.U. after   10 cycles
 SCF Done:  E(UM062X) =  -232.967321973     A.U. after   10 cycles
 SCF Done:  E(UM062X) =  -232.967323595     A.U. after   10 cycles
 SCF Done:  E(UM062X) =  -232.967325374     A.U. after    9 cycles
 SCF Done:  E(UM062X) =  -232.967325140     A.U. after    9 cycles
 SCF Done:  E(UM062X) =  -232.967325380     A.U. after    9 cycles
 SCF Done:  E(UM062X) =  -232.967325407     A.U. after    8 cycles
 SCF Done:  E(UM062X) =  -232.967325425     A.U. after    8 cycles
 SCF Done:  E(UM062X) =  -232.967325426     A.U. after    5 cycles
 SCF Done:  E(UM062X) =  -232.967325426     A.U. after    4 cycles
 Optimization completed.
    -- Stationary point found.
 Normal termination of Gaussian 16 at Tue Apr  9 01:31:52 2019.

 ----------------------------------------------------------------------
 #P Geom=AllCheck Guess=TCheck SCRF=Check Test GenChk UM062X/6-311+G(2d
 f,2p) Freq
 ----------------------------------------------------------------------

 Structure from the checkpoint file:  "/scratch/underkoffler.c/gaussian_scratch/Gau-25005.chk"
 ------------------------------
 Gaussian input prepared by ASE
 ------------------------------
 Charge =  0 Multiplicity = 2

                         Standard orientation:
 ---------------------------------------------------------------------
 Center     Atomic      Atomic             Coordinates (Angstroms)
 Number     Number       Type             X           Y           Z
 ---------------------------------------------------------------------
      1          8           0       -2.291235   -0.132853   -0.215803
      2          6           0       -0.066963    0.710982   -0.264667
      3          6           0       -1.010102   -0.315816    0.357588
      4          6           0        2.182874   -0.565465   -0.154294
      5          6           0        1.326668    0.584527    0.243916
      6          1           0       -0.092440    0.558841   -1.348559
      7          1           0       -0.471084    1.704308   -0.066697
      8          1           0       -1.040895   -0.172838    1.442886
      9          1           0       -0.634900   -1.325511    0.159128
     10          1           0        2.008877   -1.450800    0.471164
     11          1           0        1.979024   -0.865398   -1.184585
     12          1           0        3.243408   -0.328294   -0.070205
     13          1           0        1.648638    1.217080    1.059450
     14          1           0       -2.905614   -0.759937    0.168579
 ---------------------------------------------------------------------

 SCF Done:  E(UM062X) =  -232.967325426     A.U. after    1 cycles

 The electronic state is 2-A.
 Alpha  occ. eigenvalues --  -19.62121 -10.58213 -10.54105 -10.53000 -10.52897
 Alpha  occ. eigenvalues --   -1.14574  -0.90039  -0.81853  -0.72608  -0.64807
 Alpha  occ. eigenvalues --   -0.59270  -0.55566  -0.50552  -0.50131  -0.47300
 Alpha  occ. eigenvalues --   -0.45906  -0.41575  -0.41090  -0.40193  -0.35156
 Alpha  occ. eigenvalues --   -0.24222
 Alpha virt. eigenvalues --    0.01222   0.02281   0.03366   0.04214   0.06003
 Alpha virt. eigenvalues --    0.06511   0.06990   0.07682   0.08478   0.10459
 Alpha virt. eigenvalues --    0.11932   0.12152   0.12683   0.13132   0.15162

  Beta  occ. eigenvalues --  -19.62110 -10.58105 -10.53416 -10.53065 -10.52960
  Beta  occ. eigenvalues --   -1.14494  -0.88416  -0.81175  -0.71696  -0.63170
  Beta  occ. eigenvalues --   -0.58772  -0.55215  -0.49950  -0.48511  -0.46384
  Beta  occ. eigenvalues --   -0.45281  -0.41075  -0.40608  -0.39673  -0.35103
  Beta virt. eigenvalues --   -0.01059   0.01120   0.02131   0.03292   0.03990
  Beta virt. eigenvalues --    0.05938   0.06611   0.06845   0.07552   0.08402
  Beta virt. eigenvalues --    0.10446   0.11269   0.11975   0.12390   0.13393

 Mulliken charges and spin densities:
               1          2
     1  O   -0.352864   0.005063
     2  C   -0.212759  -0.036267
     3  C   -0.282895   0.052737
     4  C   -0.470819  -0.046975
     5  C   -0.137749   0.991798
     6  H    0.178818   0.018812
     7  H    0.156394   0.005358
     8  H    0.141653  -0.010390
     9  H    0.141296  -0.005054
    10  H    0.138897   0.049351
    11  H    0.142145   0.015679
    12  H    0.138838   0.013356
    13  H    0.178148  -0.054641
    14  H    0.240898   0.001172
 Sum of Mulliken charges =  -0.00000   1.00000

 Dipole moment (field-independent basis, Debye):
    X=              0.3487    Y=             -1.2734    Z=              1.1321  Tot=              1.7392
 Quadrupole moment (field-independent basis, Debye-Ang):
   XX=            -32.2703   YY=            -32.1415   ZZ=            -33.2134
   XY=              2.9263   XZ=             -2.5930   YZ=              0.1383

  Exact polarizability:  63.154  -0.522  51.322   0.561  -0.002  48.423
 Approx polarizability:  63.181  -0.156  59.762   1.095  -0.147  58.695

                      1                      2                      3
                      A                      A                      A
 Frequencies --     67.0592               109.4312               120.5045
 Red. masses --      1.6530                 2.0257                 1.5048
 Frc consts  --      0.0044                 0.0143                 0.0129
 IR Inten    --      1.5229                 6.0097                 1.1946

                      4                      5                      6
                      A                      A                      A
 Frequencies --    245.0813               249.3587               353.7158
 Red. masses --      1.6017                 1.1246                 2.8300
 Frc consts  --      0.0567                 0.0412                 0.2086
 IR Inten    --     14.2968               102.7722                14.0350

                      7                      8                      9
                      A                      A                      A
 Frequencies --    412.7659               502.1207               797.6402
 Red. masses --      1.6457                 3.5786                 1.1547
 Frc consts  --      0.1652                 0.5316                 0.4329
 IR Inten    --     24.7373                 5.7902                 0.1995

                     10                     11                     12
                      A                      A                      A
 Frequencies --    906.9065               978.6784               986.3230
 Red. masses --      2.2742                 1.3024                 1.5356
 Frc consts  --      1.1020                 0.7350                 0.8802
 IR Inten    --      8.4813                 0.7026                 1.6467

                     13                     14                     15
                      A                      A                      A
 Frequencies --   1004.4964              1107.9853              1157.2736
 Red. masses --      2.1050                 5.4457                 1.8255
 Frc consts  --      1.2514                 3.9388                 1.4405
 IR Inten    --     12.4175               104.7032                 0.3001

                     16                     17                     18
                      A                      A                      A
 Frequencies --   1166.0005              1221.9088              1249.1715
 Red. masses --      1.9168                 1.1778                 1.2443
 Frc consts  --      1.5354                 1.0361                 1.1439
 IR Inten    --      2.3409                29.2590                 5.5141

                     19                     20                     21
                      A                      A                      A
 Frequencies --   1314.3041              1329.0202              1389.8958
 Red. masses --      1.2491                 1.1915                 1.3986
 Frc consts  --      1.2713                 1.2399                 1.5919
 IR Inten    --     11.1765                 5.2125                 6.6430

                     22                     23                     24
                      A                      A                      A
 Frequencies --   1419.3162              1443.8325              1478.3886
 Red. masses --      1.4665                 1.4067                 1.0698
 Frc consts  --      1.7406                 1.7278                 1.3777
 IR Inten    --      8.5344                 4.8433                 5.6982

                     25                     26                     27
                      A                      A                      A
 Frequencies --   1493.4789              1494.5148              1530.9109
 Red. masses --      1.1132                 1.0519                 1.0868
 Frc consts  --      1.4629                 1.3842                 1.5007
 IR Inten    --      3.6041                 8.4844                 3.6374

                     28                     29                     30
                      A                      A                      A
 Frequencies --   2998.5424              3018.6349              3039.2971
 Red. masses --      1.0556                 1.0548                 1.0695
 Frc consts  --      5.5919                 5.6628                 5.8209
 IR Inten    --     16.5593                38.6805                21.8210

                     31                     32                     33
                      A                      A                      A
 Frequencies --   3054.9864              3073.6951              3108.8433
 Red. masses --      1.1011                 1.0768                 1.0990
 Frc consts  --      6.0545                 5.9941                 6.2584
 IR Inten    --     36.4819                15.9434                23.9015

                     34                     35                     36
                      A                      A                      A
 Frequencies --   3122.5871              3200.4274              3912.4750
 Red. masses --      1.1001                 1.0886                 1.0667
 Frc consts  --      6.3200                 6.5696                 9.6202
 IR Inten    --     15.8038                17.5773                46.5545

 - Thermochemistry -
 -------------------
 Temperature   298.150 Kelvin.  Pressure   1.00000 Atm.
 Atom     1 has atomic number  8 and mass  15.99491

 Molecular mass:    73.06534 amu.
 Principal axes and moments of inertia in atomic units:
                           1         2         3
     Eigenvalues --   130.01932 774.42311 826.88342
           X            0.99993  -0.00746  -0.00915
           Y            0.00758   0.99988   0.01343
           Z            0.00905  -0.01350   0.99987
 This molecule is an asymmetric top.
 Rotational symmetry number  1.
 Rotational temperatures (Kelvin)      0.66616     0.11184     0.10475
 Rotational constants (GHZ):          13.88056     2.33043     2.18258
 Zero-point vibrational energy     323348.0 (Joules/Mol)
                                   77.28204 (Kcal/Mol)
 Warning -- explicit consideration of   8 degrees of freedom as
           vibrations may cause significant error
 Vibrational temperatures:     96.48   157.45   173.38   352.62   358.77
          (Kelvin)            508.92   593.88   722.44  1147.63  1304.84
                             1408.10  1419.10  1445.25  1594.14  1665.06
                             1677.61  1758.05  1797.28  1890.99  1912.16
                             1999.75  2042.08  2077.35  2127.07  2148.78
                             2150.27  2202.64  4314.23  4343.14  4372.87
                             4395.44  4422.36  4472.93  4492.71  4604.70
                             5629.18

 Zero-point correction=                           0.123157 (Hartree/Particle)
 Thermal correction to Energy=                    0.130460
 Thermal correction to Enthalpy=                  0.131404
 Thermal correction to Gibbs Free Energy=         0.091527
 Sum of electronic and zero-point Energies=           -232.844169
 Sum of electronic and thermal Energies=              -232.836866
 Sum of electronic and thermal Enthalpies=            -232.835922
 Sum of electronic and thermal Free Energies=         -232.875798

                     E (Thermal)             CV                S
                      KCal/Mol        Cal/Mol-Kelvin    Cal/Mol-Kelvin
 Total                   81.865             23.886             83.927
 Electronic               0.000              0.000              1.377
 Translational            0.889              2.981             38.783
 Rotational               0.889              2.981             25.924
 Vibrational             80.087             17.924             17.843
 Vibration     1          0.598              1.970              4.238
 Vibration     2          0.606              1.942              3.279
 Vibration     3          0.609              1.932              3.092
 Vibration     4          0.660              1.771              1.766
 Vibration     5          0.662              1.764              1.735
 Vibration     6          0.730              1.568              1.150
 Vibration     7          0.777              1.443              0.917
 Vibration     8          0.857              1.245              0.653

                           ! Non-Optimized Parameters !
 Normal termination of Gaussian 16 at Tue Apr  9 01:36:58 2019.
