 Gaussian 16, Revision A.03,
 Gaussian 16:  EM64L-G16RevA.03 25-Dec-2016

 ----------------------------------------------
 #p m062x/6-311+g(2df,2p) Opt=(CalcFC,ModRedun)
 ----------------------------------------------

 ----------------------------------------
 Gaussian Input Prepared from Scan Object
 ----------------------------------------
 Symbolic Z-matrix:
 Charge =  0 Multiplicity = 2

 SCF Done:  E(UM062X) =  -232.969640333     A.U. after   14 cycles

  Exact polarizability:   0.000   0.000   0.000   0.000   0.000   0.000
 Approx polarizability:  62.464   1.087  61.495   0.121  -0.560  59.309

 Optimization completed.
    -- Stationary point found.
 SCF Done:  E(UM062X) =  -232.960163110     A.U. after   13 cycles
 SCF Done:  E(UM062X) =  -232.967749251     A.U. after   11 cycles
 SCF Done:  E(UM062X) =  -232.968428171     A.U. after   11 cycles
 SCF Done:  E(UM062X) =  -232.968443145     A.U. after   10 cycles
 SCF Done:  E(UM062X) =  -232.968443581     A.U. after    9 cycles
 Optimization completed.
 SCF Done:  E(UM062X) =  -232.957723963     A.U. after   12 cycles
 SCF Done:  E(UM062X) =  -232.966279189     A.U. after   11 cycles
 SCF Done:  E(UM062X) =  -232.967062942     A.U. after   11 cycles
 SCF Done:  E(UM062X) =  -232.967085336     A.U. after   10 cycles
 SCF Done:  E(UM062X) =  -232.968204014     A.U. after    8 cycles
 SCF Done:  E(UM062X) =  -232.968203956     A.U. after    8 cycles
    -- Stationary point found.
 SCF Done:  E(UM062X) =  -232.961299695     A.U. after   11 cycles
 SCF Done:  E(UM062X) =  -232.965607355     A.U. after   11 cycles
 SCF Done:  E(UM062X) =  -232.968954596     A.U. after   11 cycles
 SCF Done:  E(UM062X) =  -232.969231695     A.U. after   11 cycles
 SCF Done:  E(UM062X) =  -232.969246356     A.U. after   10 cycles
 SCF Done:  E(UM062X) =  -232.969247835     A.U. after    9 cycles
 SCF Done:  E(UM062X) =  -232.969248059     A.U. after    9 cycles
 SCF Done:  E(UM062X) =  -232.969248107     A.U. after    7 cycles
 Optimization completed.
    -- Stationary point found.

                         Standard orientation:
 ---------------------------------------------------------------------
 Center     Atomic      Atomic             Coordinates (Angstroms)
 Number     Number       Type             X           Y           Z
 ---------------------------------------------------------------------
      1          8           0        1.832018   -0.731948   -0.246548
      2          6           0        0.082828    0.973101   -0.177267
      3          6           0        1.183045    0.215786    0.573081
      4          6           0       -2.023087   -0.433513    0.342715
      5          6           0       -1.019134    0.074729   -0.630820
      6          1           0        0.538324    1.483508   -1.026129
      7          1           0       -0.312212    1.741965    0.499156
      8          1           0        1.953650    0.910379    0.904691
      9          1           0        0.764569   -0.265616    1.464128
     10          1           0       -2.578479   -1.284959   -0.047030
     11          1           0       -1.555952   -0.732565    1.283841
     12          1           0       -2.756154    0.343535    0.596100
     13          1           0       -1.210136   -0.042643   -1.687800
     14          1           0        1.158334   -1.278633   -0.660830
 ---------------------------------------------------------------------

 The electronic state is 2-A.
 Alpha  occ. eigenvalues --  -19.61587 -10.58061 -10.55023 -10.53756 -10.53549
 Alpha  occ. eigenvalues --   -1.14259  -0.90345  -0.82237  -0.73818  -0.65128
 Alpha  occ. eigenvalues --   -0.58576  -0.54119  -0.53234  -0.49452  -0.48215
 Alpha  occ. eigenvalues --   -0.47016  -0.42780  -0.41549  -0.39382  -0.35033
 Alpha  occ. eigenvalues --   -0.25159
 Alpha virt. eigenvalues --    0.01310   0.02891   0.03085   0.03978   0.05821
 Alpha virt. eigenvalues --    0.06106   0.06858   0.07307   0.08269   0.10332
 Alpha virt. eigenvalues --    0.10842   0.11519   0.12079   0.12643   0.15074

  Beta  occ. eigenvalues --  -19.61570 -10.57984 -10.54366 -10.53820 -10.53609
  Beta  occ. eigenvalues --   -1.14172  -0.88672  -0.81678  -0.73052  -0.63144
  Beta  occ. eigenvalues --   -0.58199  -0.53324  -0.52482  -0.48642  -0.47078
  Beta  occ. eigenvalues --   -0.46477  -0.42385  -0.41081  -0.38996  -0.34704
  Beta virt. eigenvalues --   -0.02489   0.01208   0.02480   0.03011   0.04117
  Beta virt. eigenvalues --    0.05861   0.05989   0.06768   0.07083   0.08282
  Beta virt. eigenvalues --    0.10117   0.10651   0.11113   0.11923   0.12267

 Mulliken charges and spin densities:
               1          2
     1  O   -0.345198   0.005056
     2  C   -0.309695  -0.058408
     3  C   -0.173356   0.034256
     4  C   -0.466588  -0.062334
     5  C   -0.187095   1.035821
     6  H    0.179674   0.000718
     7  H    0.157322   0.033289
     8  H    0.140765  -0.000762
     9  H    0.138318  -0.008220
    10  H    0.137446   0.008804
    11  H    0.134786   0.020666
    12  H    0.144827   0.050007
    13  H    0.196413  -0.059899
    14  H    0.252379   0.001005
 Sum of Mulliken charges =  -0.00000   1.00000

 Dipole moment (field-independent basis, Debye):
    X=             -2.0261    Y=              0.4661    Z=              0.3003  Tot=              2.1006
 Quadrupole moment (field-independent basis, Debye-Ang):
   XX=            -37.7598   YY=            -32.0031   ZZ=            -31.9465
   XY=              2.6131   XZ=              0.9611   YZ=              1.0058

 Normal termination of Gaussian 16 at Fri Mar 29 10:11:07 2019.
