 Gaussian 16, Revision A.03,
 Gaussian 16:  EM64L-G16RevA.03 25-Dec-2016

 ----------------------------------------------------------------------
 #p m062x/6-311+g(2df,2p) opt=(calcfc,verytight,gdiis,maxcycles=900) fr
 eq iop(7/33=1,2/16=3)
 ----------------------------------------------------------------------

 ------------------------------
 Gaussian input prepared by ASE
 ------------------------------
 Symbolic Z-matrix:
 Charge =  0 Multiplicity = 2

 SCF Done:  E(UM062X) =  -232.956529948     A.U. after   13 cycles
 SCF Done:  E(UM062X) =  -232.963790353     A.U. after   12 cycles
 SCF Done:  E(UM062X) =  -232.960546012     A.U. after   14 cycles
 SCF Done:  E(UM062X) =  -232.963953061     A.U. after   11 cycles
 SCF Done:  E(UM062X) =  -232.966518479     A.U. after   12 cycles
 SCF Done:  E(UM062X) =  -232.966894782     A.U. after   12 cycles
 SCF Done:  E(UM062X) =  -232.967227950     A.U. after   13 cycles
 SCF Done:  E(UM062X) =  -232.967330938     A.U. after   11 cycles
 SCF Done:  E(UM062X) =  -232.967398742     A.U. after   11 cycles
 SCF Done:  E(UM062X) =  -232.967421493     A.U. after   10 cycles
 SCF Done:  E(UM062X) =  -232.969256678     A.U. after    9 cycles
 SCF Done:  E(UM062X) =  -232.969257430     A.U. after    9 cycles
 SCF Done:  E(UM062X) =  -232.969257449     A.U. after    8 cycles
 SCF Done:  E(UM062X) =  -232.969257456     A.U. after    6 cycles
 SCF Done:  E(UM062X) =  -232.969257457     A.U. after    4 cycles
 SCF Done:  E(UM062X) =  -232.969257456     A.U. after    5 cycles
 SCF Done:  E(UM062X) =  -232.969257457     A.U. after    4 cycles
 SCF Done:  E(UM062X) =  -232.969257456     A.U. after    3 cycles
 SCF Done:  E(UM062X) =  -232.969257456     A.U. after    2 cycles
 Optimization completed.
    -- Stationary point found.
 Normal termination of Gaussian 16 at Tue Apr  9 01:55:25 2019.

 ----------------------------------------------------------------------
 #P Geom=AllCheck Guess=TCheck SCRF=Check Test GenChk UM062X/6-311+G(2d
 f,2p) Freq
 ----------------------------------------------------------------------

 Structure from the checkpoint file:  "/scratch/underkoffler.c/gaussian_scratch/Gau-32310.chk"
 ------------------------------
 Gaussian input prepared by ASE
 ------------------------------
 Charge =  0 Multiplicity = 2

                         Standard orientation:
 ---------------------------------------------------------------------
 Center     Atomic      Atomic             Coordinates (Angstroms)
 Number     Number       Type             X           Y           Z
 ---------------------------------------------------------------------
      1          8           0        1.838713   -0.728229   -0.238880
      2          6           0        0.081161    0.968219   -0.188711
      3          6           0        1.183222    0.222972    0.571484
      4          6           0       -2.029954   -0.424909    0.345154
      5          6           0       -1.017316    0.060284   -0.631146
      6          1           0       -0.316808    1.744083    0.477801
      7          1           0        0.536197    1.469049   -1.043495
      8          1           0        0.762781   -0.253030    1.464493
      9          1           0        1.949864    0.923572    0.899394
     10          1           0       -1.571934   -0.693630    1.299849
     11          1           0       -2.770022    0.355018    0.567482
     12          1           0       -2.576538   -1.290468   -0.025622
     13          1           0       -1.196845   -0.084829   -1.686658
     14          1           0        1.170925   -1.303337   -0.622889
 ---------------------------------------------------------------------

 SCF Done:  E(UM062X) =  -232.969257456     A.U. after    1 cycles

 The electronic state is 2-A.
 Alpha  occ. eigenvalues --  -19.61605 -10.58069 -10.54984 -10.53717 -10.53540
 Alpha  occ. eigenvalues --   -1.14273  -0.90323  -0.82228  -0.73785  -0.65105
 Alpha  occ. eigenvalues --   -0.58653  -0.54065  -0.53228  -0.49446  -0.48159
 Alpha  occ. eigenvalues --   -0.46986  -0.42818  -0.41534  -0.39364  -0.35058
 Alpha  occ. eigenvalues --   -0.25109
 Alpha virt. eigenvalues --    0.01311   0.02899   0.03103   0.03954   0.05821
 Alpha virt. eigenvalues --    0.06088   0.06869   0.07309   0.08250   0.10334
 Alpha virt. eigenvalues --    0.10850   0.11507   0.12102   0.12637   0.15092

  Beta  occ. eigenvalues --  -19.61588 -10.57991 -10.54328 -10.53782 -10.53600
  Beta  occ. eigenvalues --   -1.14188  -0.88650  -0.81666  -0.73018  -0.63119
  Beta  occ. eigenvalues --   -0.58286  -0.53276  -0.52477  -0.48586  -0.47054
  Beta  occ. eigenvalues --   -0.46453  -0.42426  -0.41062  -0.38988  -0.34716
  Beta virt. eigenvalues --   -0.02456   0.01208   0.02488   0.03023   0.04100
  Beta virt. eigenvalues --    0.05847   0.05984   0.06791   0.07082   0.08256
  Beta virt. eigenvalues --    0.10118   0.10653   0.11104   0.11952   0.12266

 Mulliken charges and spin densities:
               1          2
     1  O   -0.345162   0.004965
     2  C   -0.309665  -0.059229
     3  C   -0.170998   0.034969
     4  C   -0.467563  -0.062445
     5  C   -0.188114   1.037346
     6  H    0.157203   0.032563
     7  H    0.179557   0.000876
     8  H    0.138593  -0.008401
     9  H    0.140730  -0.000557
    10  H    0.134231   0.020496
    11  H    0.145051   0.050013
    12  H    0.137284   0.008990
    13  H    0.196542  -0.060272
    14  H    0.252311   0.000685
 Sum of Mulliken charges =  -0.00000   1.00000

 Dipole moment (field-independent basis, Debye):
    X=             -2.0158    Y=              0.4222    Z=              0.3255  Tot=              2.0851
 Quadrupole moment (field-independent basis, Debye-Ang):
   XX=            -37.7970   YY=            -31.8611   ZZ=            -32.0323
   XY=              2.5539   XZ=              0.9526   YZ=              0.9966

  Exact polarizability:  60.381   1.674  51.371  -0.087   1.417  51.195
 Approx polarizability:  62.756   0.912  60.084  -0.333   2.289  60.704

                      1                      2                      3
                      A                      A                      A
 Frequencies --     61.5499               102.7397               169.1362
 Red. masses --      2.0033                 1.2231                 1.9479
 Frc consts  --      0.0045                 0.0076                 0.0328
 IR Inten    --      1.4796                 0.8012                 1.9254

                      4                      5                      6
                      A                      A                      A
 Frequencies --    265.6103               347.8735               376.5051
 Red. masses --      2.2371                 1.3082                 1.3335
 Frc consts  --      0.0930                 0.0933                 0.1114
 IR Inten    --      0.5087                93.0899                25.2970

                      7                      8                      9
                      A                      A                      A
 Frequencies --    410.9838               540.7922               828.6499
 Red. masses --      1.7622                 2.4350                 1.9417
 Frc consts  --      0.1754                 0.4196                 0.7855
 IR Inten    --     21.1949                 8.5710                 6.5004

                     10                     11                     12
                      A                      A                      A
 Frequencies --    859.2044               955.0456               985.6975
 Red. masses --      2.1227                 1.7233                 1.3354
 Frc consts  --      0.9233                 0.9261                 0.7644
 IR Inten    --      4.2390                 5.5143                 0.9595

                     13                     14                     15
                      A                      A                      A
 Frequencies --    995.6140              1103.0361              1141.4203
 Red. masses --      1.4733                 2.9974                 1.8761
 Frc consts  --      0.8604                 2.1487                 1.4401
 IR Inten    --      2.5232                90.5341                 2.9240

                     16                     17                     18
                      A                      A                      A
 Frequencies --   1159.8382              1193.7482              1250.0484
 Red. masses --      2.3483                 1.1769                 1.2744
 Frc consts  --      1.8612                 0.9881                 1.1733
 IR Inten    --     18.2747                28.5415                 0.9148

                     19                     20                     21
                      A                      A                      A
 Frequencies --   1347.5752              1373.1743              1384.4064
 Red. masses --      1.3869                 1.2673                 1.3192
 Frc consts  --      1.4839                 1.4080                 1.4897
 IR Inten    --      4.4449                 1.2360                20.4156

                     22                     23                     24
                      A                      A                      A
 Frequencies --   1415.5262              1428.4086              1471.0616
 Red. masses --      1.3248                 1.3581                 1.1067
 Frc consts  --      1.5640                 1.6326                 1.4111
 IR Inten    --     24.0150                25.5377                 7.8745

                     25                     26                     27
                      A                      A                      A
 Frequencies --   1482.5730              1491.0360              1521.4218
 Red. masses --      1.0706                 1.0696                 1.0856
 Frc consts  --      1.3865                 1.4011                 1.4806
 IR Inten    --      4.8201                 3.9171                 3.7644

                     28                     29                     30
                      A                      A                      A
 Frequencies --   3000.5873              3010.4588              3026.1882
 Red. masses --      1.0556                 1.0684                 1.0701
 Frc consts  --      5.5998                 5.7051                 5.7739
 IR Inten    --     18.2088                21.5110                47.9852

                     31                     32                     33
                      A                      A                      A
 Frequencies --   3075.9199              3106.0249              3118.9163
 Red. masses --      1.0786                 1.0915                 1.0953
 Frc consts  --      6.0123                 6.2040                 6.2774
 IR Inten    --     14.8903                14.8512                35.1435

                     34                     35                     36
                      A                      A                      A
 Frequencies --   3134.1258              3208.0611              3863.9418
 Red. masses --      1.0981                 1.0894                 1.0657
 Frc consts  --      6.3551                 6.6058                 9.3748
 IR Inten    --     13.0923                12.3387                33.1975

 - Thermochemistry -
 -------------------
 Temperature   298.150 Kelvin.  Pressure   1.00000 Atm.
 Atom     1 has atomic number  8 and mass  15.99491

 Molecular mass:    73.06534 amu.
 Principal axes and moments of inertia in atomic units:
                           1         2         3
     Eigenvalues --   191.49539 636.73919 677.99995
           X            0.99954   0.03023  -0.00113
           Y           -0.03023   0.99953   0.00514
           Z            0.00128  -0.00511   0.99999
 This molecule is an asymmetric top.
 Rotational symmetry number  1.
 Rotational temperatures (Kelvin)      0.45230     0.13603     0.12775
 Rotational constants (GHZ):           9.42446     2.83435     2.66186
 Zero-point vibrational energy     324229.3 (Joules/Mol)
                                   77.49265 (Kcal/Mol)
 Warning -- explicit consideration of   8 degrees of freedom as
           vibrations may cause significant error
 Vibrational temperatures:     88.56   147.82   243.35   382.15   500.51
          (Kelvin)            541.71   591.31   778.08  1192.24  1236.20
                             1374.10  1418.20  1432.47  1587.02  1642.25
                             1668.75  1717.54  1798.54  1938.86  1975.69
                             1991.85  2036.63  2055.16  2116.53  2133.09
                             2145.27  2188.99  4317.18  4331.38  4354.01
                             4425.56  4468.88  4487.42  4509.31  4615.68
                             5559.35

 Zero-point correction=                           0.123492 (Hartree/Particle)
 Thermal correction to Energy=                    0.130541
 Thermal correction to Enthalpy=                  0.131486
 Thermal correction to Gibbs Free Energy=         0.092188
 Sum of electronic and zero-point Energies=           -232.845765
 Sum of electronic and thermal Energies=              -232.838716
 Sum of electronic and thermal Enthalpies=            -232.837772
 Sum of electronic and thermal Free Energies=         -232.877069

                     E (Thermal)             CV                S
                      KCal/Mol        Cal/Mol-Kelvin    Cal/Mol-Kelvin
 Total                   81.916             23.571             82.709
 Electronic               0.000              0.000              1.377
 Translational            0.889              2.981             38.783
 Rotational               0.889              2.981             25.917
 Vibrational             80.139             17.610             16.632
 Vibration     1          0.597              1.973              4.407
 Vibration     2          0.605              1.947              3.402
 Vibration     3          0.625              1.880              2.445
 Vibration     4          0.671              1.736              1.625
 Vibration     5          0.726              1.580              1.176
 Vibration     6          0.747              1.520              1.053
 Vibration     7          0.775              1.446              0.923
 Vibration     8          0.896              1.160              0.564

                           ! Non-Optimized Parameters !
 Normal termination of Gaussian 16 at Tue Apr  9 02:00:51 2019.
