 Gaussian 16, Revision A.03,
 Gaussian 16:  EM64L-G16RevA.03 25-Dec-2016

 ----------------------------------------------
 #p m062x/6-311+g(2df,2p) Opt=(CalcFC,ModRedun)
 ----------------------------------------------

 ----------------------------------------
 Gaussian Input Prepared from Scan Object
 ----------------------------------------
 Symbolic Z-matrix:
 Charge =  0 Multiplicity = 2

 SCF Done:  E(UM062X) =  -232.969640333     A.U. after   14 cycles

  Exact polarizability:   0.000   0.000   0.000   0.000   0.000   0.000
 Approx polarizability:  62.464   1.087  61.495   0.121  -0.560  59.309

 Optimization completed.
    -- Stationary point found.
 SCF Done:  E(UM062X) =  -232.954208752     A.U. after   13 cycles
 SCF Done:  E(UM062X) =  -232.963409073     A.U. after   12 cycles
 SCF Done:  E(UM062X) =  -232.965842409     A.U. after   11 cycles
 SCF Done:  E(UM062X) =  -232.965915403     A.U. after   11 cycles
 SCF Done:  E(UM062X) =  -232.965919251     A.U. after    9 cycles
 SCF Done:  E(UM062X) =  -232.965919288     A.U. after    8 cycles
 Optimization completed.
 SCF Done:  E(UM062X) =  -232.945504098     A.U. after   12 cycles
 SCF Done:  E(UM062X) =  -232.956971535     A.U. after   12 cycles
 SCF Done:  E(UM062X) =  -232.962041011     A.U. after   12 cycles
    -- Stationary point found.
 SCF Done:  E(UM062X) =  -232.967058525     A.U. after   12 cycles
 SCF Done:  E(UM062X) =  -232.968452359     A.U. after    8 cycles
 SCF Done:  E(UM062X) =  -232.968856098     A.U. after   12 cycles
 SCF Done:  E(UM062X) =  -232.969078485     A.U. after   13 cycles
 SCF Done:  E(UM062X) =  -232.969184251     A.U. after   11 cycles
 SCF Done:  E(UM062X) =  -232.969237112     A.U. after   10 cycles
 SCF Done:  E(UM062X) =  -232.969245460     A.U. after   11 cycles
 SCF Done:  E(UM062X) =  -232.969251421     A.U. after   10 cycles
 SCF Done:  E(UM062X) =  -232.969251826     A.U. after    8 cycles
 SCF Done:  E(UM062X) =  -232.969251893     A.U. after    8 cycles
 Optimization completed.
    -- Stationary point found.

                         Standard orientation:
 ---------------------------------------------------------------------
 Center     Atomic      Atomic             Coordinates (Angstroms)
 Number     Number       Type             X           Y           Z
 ---------------------------------------------------------------------
      1          8           0        1.848499    0.720399    0.236613
      2          6           0        0.080272   -0.964000    0.192101
      3          6           0        1.179858   -0.221628   -0.574228
      4          6           0       -2.034732    0.421876   -0.344720
      5          6           0       -1.018134   -0.054645    0.631660
      6          1           0        0.538051   -1.460669    1.047831
      7          1           0       -0.319059   -1.743194   -0.469771
      8          1           0        1.939304   -0.924233   -0.914168
      9          1           0        0.753348    0.264818   -1.458622
     10          1           0       -2.578898    1.291533    0.020031
     11          1           0       -1.580850    0.680785   -1.304054
     12          1           0       -2.776538   -0.359509   -0.555877
     13          1           0       -1.194899    0.097541    1.686675
     14          1           0        1.187969    1.300117    0.626175
 ---------------------------------------------------------------------

 The electronic state is 2-A.
 Alpha  occ. eigenvalues --  -19.61605 -10.58071 -10.54978 -10.53712 -10.53536
 Alpha  occ. eigenvalues --   -1.14267  -0.90324  -0.82221  -0.73776  -0.65106
 Alpha  occ. eigenvalues --   -0.58670  -0.54056  -0.53213  -0.49451  -0.48151
 Alpha  occ. eigenvalues --   -0.46963  -0.42834  -0.41519  -0.39375  -0.35070
 Alpha  occ. eigenvalues --   -0.25093
 Alpha virt. eigenvalues --    0.01317   0.02900   0.03112   0.03948   0.05821
 Alpha virt. eigenvalues --    0.06094   0.06867   0.07310   0.08242   0.10343
 Alpha virt. eigenvalues --    0.10847   0.11507   0.12103   0.12647   0.15084

  Beta  occ. eigenvalues --  -19.61588 -10.57993 -10.54322 -10.53777 -10.53596
  Beta  occ. eigenvalues --   -1.14184  -0.88652  -0.81660  -0.73010  -0.63118
  Beta  occ. eigenvalues --   -0.58304  -0.53259  -0.52482  -0.48574  -0.47054
  Beta  occ. eigenvalues --   -0.46432  -0.42441  -0.41050  -0.38998  -0.34722
  Beta virt. eigenvalues --   -0.02475   0.01213   0.02485   0.03026   0.04094
  Beta virt. eigenvalues --    0.05838   0.05989   0.06787   0.07081   0.08246
  Beta virt. eigenvalues --    0.10121   0.10648   0.11104   0.11947   0.12263

 Mulliken charges and spin densities:
               1          2
     1  O   -0.345543   0.004869
     2  C   -0.311165  -0.059036
     3  C   -0.169073   0.034948
     4  C   -0.467985  -0.062004
     5  C   -0.187142   1.036876
     6  H    0.179969   0.000837
     7  H    0.156968   0.032561
     8  H    0.140529  -0.000411
     9  H    0.138474  -0.008487
    10  H    0.137187   0.009073
    11  H    0.134058   0.020313
    12  H    0.145071   0.049948
    13  H    0.196486  -0.060219
    14  H    0.252165   0.000731
 Sum of Mulliken charges =  -0.00000   1.00000

 Dipole moment (field-independent basis, Debye):
    X=             -2.0185    Y=             -0.4066    Z=             -0.3170  Tot=              2.0833
 Quadrupole moment (field-independent basis, Debye-Ang):
   XX=            -37.8496   YY=            -31.8382   ZZ=            -32.0166
   XY=             -2.5008   XZ=             -0.9276   YZ=              1.0209

 Normal termination of Gaussian 16 at Fri Mar 29 09:44:32 2019.
