 Gaussian 16, Revision A.03,
 Gaussian 16:  EM64L-G16RevA.03 25-Dec-2016

 ----------------------------------------------
 #p m062x/6-311+g(2df,2p) Opt=(CalcFC,ModRedun)
 ----------------------------------------------

 ----------------------------------------
 Gaussian Input Prepared from Scan Object
 ----------------------------------------
 Symbolic Z-matrix:
 Charge =  0 Multiplicity = 2

 SCF Done:  E(UM062X) =  -232.969640333     A.U. after   14 cycles

  Exact polarizability:   0.000   0.000   0.000   0.000   0.000   0.000
 Approx polarizability:  62.464   1.087  61.495   0.121  -0.560  59.309

 Optimization completed.
    -- Stationary point found.
 SCF Done:  E(UM062X) =  -232.961338092     A.U. after   13 cycles
 SCF Done:  E(UM062X) =  -232.968450677     A.U. after   12 cycles
 SCF Done:  E(UM062X) =  -232.969168321     A.U. after   12 cycles
 SCF Done:  E(UM062X) =  -232.969184572     A.U. after   10 cycles
 SCF Done:  E(UM062X) =  -232.969185403     A.U. after    9 cycles
 Optimization completed.
 SCF Done:  E(UM062X) =  -232.960781410     A.U. after   12 cycles
 SCF Done:  E(UM062X) =  -232.967794176     A.U. after   12 cycles
 SCF Done:  E(UM062X) =  -232.968456766     A.U. after   12 cycles
 SCF Done:  E(UM062X) =  -232.968493423     A.U. after   11 cycles
 SCF Done:  E(UM062X) =  -232.968834471     A.U. after   12 cycles
 SCF Done:  E(UM062X) =  -232.968967398     A.U. after   12 cycles
 SCF Done:  E(UM062X) =  -232.968968011     A.U. after   10 cycles
 SCF Done:  E(UM062X) =  -232.968968346     A.U. after   10 cycles
 SCF Done:  E(UM062X) =  -232.968968392     A.U. after    8 cycles
    -- Stationary point found.
 SCF Done:  E(UM062X) =  -232.961531701     A.U. after   13 cycles
 SCF Done:  E(UM062X) =  -232.968431754     A.U. after   12 cycles
 SCF Done:  E(UM062X) =  -232.969617908     A.U. after   12 cycles
 SCF Done:  E(UM062X) =  -232.969638173     A.U. after   11 cycles
 SCF Done:  E(UM062X) =  -232.969640310     A.U. after   10 cycles
 Optimization completed.
    -- Stationary point found.

                         Standard orientation:
 ---------------------------------------------------------------------
 Center     Atomic      Atomic             Coordinates (Angstroms)
 Number     Number       Type             X           Y           Z
 ---------------------------------------------------------------------
      1          8           0        1.812746   -0.879246   -0.194902
      2          6           0        0.050596    0.803157   -0.252360
      3          6           0        1.472016    0.443509    0.163728
      4          6           0       -2.294071   -0.305139   -0.147964
      5          6           0       -0.967889   -0.019481    0.459543
      6          1           0       -0.049346    0.670762   -1.333011
      7          1           0       -0.107991    1.872956   -0.052333
      8          1           0        2.191517    1.088661   -0.338047
      9          1           0        1.585925    0.592814    1.244186
     10          1           0       -2.836035   -1.075086    0.398985
     11          1           0       -2.931380    0.588875   -0.164242
     12          1           0       -2.188488   -0.627536   -1.186016
     13          1           0       -0.847668   -0.147047    1.529804
     14          1           0        1.117595   -1.462704    0.122207
 ---------------------------------------------------------------------

 The electronic state is 2-A.
 Alpha  occ. eigenvalues --  -19.61543 -10.57962 -10.55035 -10.53771 -10.53434
 Alpha  occ. eigenvalues --   -1.14192  -0.90307  -0.82563  -0.73140  -0.65885
 Alpha  occ. eigenvalues --   -0.58329  -0.53851  -0.52485  -0.50507  -0.47842
 Alpha  occ. eigenvalues --   -0.46570  -0.42995  -0.42075  -0.39177  -0.34777
 Alpha  occ. eigenvalues --   -0.25271
 Alpha virt. eigenvalues --    0.01622   0.02772   0.03151   0.04213   0.05521
 Alpha virt. eigenvalues --    0.06250   0.06636   0.07415   0.08461   0.09411
 Alpha virt. eigenvalues --    0.10167   0.11866   0.13283   0.13747   0.16357

  Beta  occ. eigenvalues --  -19.61523 -10.57932 -10.54361 -10.53831 -10.53493
  Beta  occ. eigenvalues --   -1.14116  -0.88638  -0.82028  -0.72532  -0.63872
  Beta  occ. eigenvalues --   -0.58052  -0.52743  -0.51828  -0.49475  -0.46826
  Beta  occ. eigenvalues --   -0.46074  -0.42350  -0.41602  -0.38881  -0.34651
  Beta virt. eigenvalues --   -0.02305   0.01486   0.02611   0.02993   0.04102
  Beta virt. eigenvalues --    0.05480   0.06274   0.06624   0.07367   0.08204
  Beta virt. eigenvalues --    0.09306   0.10077   0.11553   0.13039   0.13569

 Mulliken charges and spin densities:
               1          2
     1  O   -0.345525   0.008964
     2  C   -0.335406  -0.057996
     3  C   -0.183255   0.018827
     4  C   -0.475740  -0.053004
     5  C   -0.128540   1.020904
     6  H    0.179681   0.005005
     7  H    0.152117   0.045616
     8  H    0.139918  -0.001474
     9  H    0.139982  -0.004645
    10  H    0.134007   0.008227
    11  H    0.138069   0.051882
    12  H    0.142176   0.019998
    13  H    0.190079  -0.060538
    14  H    0.252437  -0.001766
 Sum of Mulliken charges =  -0.00000   1.00000

 Dipole moment (field-independent basis, Debye):
    X=             -1.8323    Y=              0.8647    Z=              0.6798  Tot=              2.1371
 Quadrupole moment (field-independent basis, Debye-Ang):
   XX=            -36.7271   YY=            -31.9921   ZZ=            -32.7144
   XY=              3.1758   XZ=              1.1744   YZ=             -1.1016

 Normal termination of Gaussian 16 at Fri Mar 29 09:10:57 2019.
