 Gaussian 16, Revision A.03,
 Gaussian 16:  EM64L-G16RevA.03 25-Dec-2016

 ----------------------------------------------------------------------
 #p m062x/6-311+g(2df,2p) opt=(calcfc,verytight,gdiis,maxcycles=900) fr
 eq iop(7/33=1,2/16=3)
 ----------------------------------------------------------------------

 ------------------------------
 Gaussian input prepared by ASE
 ------------------------------
 Symbolic Z-matrix:
 Charge =  0 Multiplicity = 2

 SCF Done:  E(UM062X) =  -232.969637474     A.U. after   14 cycles
 SCF Done:  E(UM062X) =  -232.969640319     A.U. after   10 cycles
 SCF Done:  E(UM062X) =  -232.969640333     A.U. after    7 cycles
 SCF Done:  E(UM062X) =  -232.969640333     A.U. after    4 cycles
 SCF Done:  E(UM062X) =  -232.969640333     A.U. after    3 cycles
 SCF Done:  E(UM062X) =  -232.969640333     A.U. after    2 cycles
 SCF Done:  E(UM062X) =  -232.969640333     A.U. after    2 cycles
 SCF Done:  E(UM062X) =  -232.969640333     A.U. after    2 cycles
 Optimization completed.
    -- Stationary point found.
 Normal termination of Gaussian 16 at Mon Mar 11 15:53:58 2019.

 ----------------------------------------------------------------------
 #P Geom=AllCheck Guess=TCheck SCRF=Check Test GenChk UM062X/6-311+G(2d
 f,2p) Freq
 ----------------------------------------------------------------------

 Structure from the checkpoint file:  "/scratch/underkoffler.c/gaussian_scratch/Gau-35073.chk"
 ------------------------------
 Gaussian input prepared by ASE
 ------------------------------
 Charge =  0 Multiplicity = 2

                         Standard orientation:
 ---------------------------------------------------------------------
 Center     Atomic      Atomic             Coordinates (Angstroms)
 Number     Number       Type             X           Y           Z
 ---------------------------------------------------------------------
      1          8           0        1.812852   -0.879081   -0.195069
      2          6           0        0.050536    0.803141   -0.252206
      3          6           0        1.471986    0.443558    0.163845
      4          6           0       -2.294155   -0.304940   -0.147954
      5          6           0       -0.967783   -0.020001    0.459422
      6          1           0       -0.049361    0.671033   -1.332892
      7          1           0       -0.108186    1.872864   -0.051880
      8          1           0        2.191427    1.088899   -0.337778
      9          1           0        1.585851    0.592640    1.244339
     10          1           0       -2.836286   -1.075075    0.398442
     11          1           0       -2.931255    0.589340   -0.163254
     12          1           0       -2.188883   -0.626547   -1.186268
     13          1           0       -0.847234   -0.148393    1.529568
     14          1           0        1.117609   -1.462664    0.121624
 ---------------------------------------------------------------------

 SCF Done:  E(UM062X) =  -232.969640333     A.U. after    1 cycles

 The electronic state is 2-A.
 Alpha  occ. eigenvalues --  -19.61543 -10.57962 -10.55036 -10.53771 -10.53434
 Alpha  occ. eigenvalues --   -1.14192  -0.90307  -0.82563  -0.73139  -0.65886
 Alpha  occ. eigenvalues --   -0.58329  -0.53850  -0.52486  -0.50507  -0.47842
 Alpha  occ. eigenvalues --   -0.46569  -0.42997  -0.42075  -0.39176  -0.34776
 Alpha  occ. eigenvalues --   -0.25272
 Alpha virt. eigenvalues --    0.01622   0.02772   0.03151   0.04213   0.05522
 Alpha virt. eigenvalues --    0.06250   0.06636   0.07416   0.08460   0.09411
 Alpha virt. eigenvalues --    0.10167   0.11866   0.13282   0.13748   0.16356

  Beta  occ. eigenvalues --  -19.61523 -10.57932 -10.54362 -10.53831 -10.53494
  Beta  occ. eigenvalues --   -1.14115  -0.88638  -0.82028  -0.72531  -0.63872
  Beta  occ. eigenvalues --   -0.58051  -0.52742  -0.51829  -0.49476  -0.46826
  Beta  occ. eigenvalues --   -0.46074  -0.42352  -0.41602  -0.38880  -0.34650
  Beta virt. eigenvalues --   -0.02306   0.01486   0.02611   0.02992   0.04101
  Beta virt. eigenvalues --    0.05480   0.06273   0.06624   0.07368   0.08204
  Beta virt. eigenvalues --    0.09306   0.10077   0.11553   0.13039   0.13571

 Mulliken charges and spin densities:
               1          2
     1  O   -0.345539   0.008977
     2  C   -0.335282  -0.058035
     3  C   -0.183393   0.018822
     4  C   -0.475802  -0.052975
     5  C   -0.128479   1.020886
     6  H    0.179688   0.005026
     7  H    0.152118   0.045623
     8  H    0.139920  -0.001476
     9  H    0.139984  -0.004640
    10  H    0.134028   0.008224
    11  H    0.138048   0.051888
    12  H    0.142176   0.019996
    13  H    0.190088  -0.060544
    14  H    0.252444  -0.001771
 Sum of Mulliken charges =  -0.00000   1.00000

 Dipole moment (field-independent basis, Debye):
    X=             -1.8327    Y=              0.8645    Z=              0.6798  Tot=              2.1374
 Quadrupole moment (field-independent basis, Debye-Ang):
   XX=            -36.7280   YY=            -31.9913   ZZ=            -32.7151
   XY=              3.1757   XZ=              1.1745   YZ=             -1.1009

  Exact polarizability:  62.595   2.018  52.174   1.015  -0.801  49.007
 Approx polarizability:  62.464   1.087  61.495   0.121  -0.560  59.309

                      1                      2                      3
                      A                      A                      A
 Frequencies --     62.7625               126.4571               183.5763
 Red. masses --      2.5950                 1.1609                 2.0804
 Frc consts  --      0.0060                 0.0109                 0.0413
 IR Inten    --      0.5945                 0.5296                 1.9592

                      4                      5                      6
                      A                      A                      A
 Frequencies --    257.5260               354.7467               378.7683
 Red. masses --      1.9047                 1.6374                 1.4347
 Frc consts  --      0.0744                 0.1214                 0.1213
 IR Inten    --      4.6674                32.2350                86.8351

                      7                      8                      9
                      A                      A                      A
 Frequencies --    480.0087               510.4459               844.0529
 Red. masses --      1.3072                 2.2616                 2.2816
 Frc consts  --      0.1775                 0.3472                 0.9577
 IR Inten    --     23.4440                 4.5369                 5.7083

                     10                     11                     12
                      A                      A                      A
 Frequencies --    853.8639               968.4921               977.7805
 Red. masses --      1.5807                 1.4935                 1.2859
 Frc consts  --      0.6790                 0.8254                 0.7243
 IR Inten    --      2.2048                12.6620                 1.7031

                     13                     14                     15
                      A                      A                      A
 Frequencies --   1027.8906              1117.2487              1136.0179
 Red. masses --      1.9920                 2.8477                 1.8658
 Frc consts  --      1.2400                 2.0943                 1.4187
 IR Inten    --      2.8878               100.1066                 3.6641

                     16                     17                     18
                      A                      A                      A
 Frequencies --   1157.8727              1213.1871              1237.0959
 Red. masses --      1.8434                 1.3379                 1.3857
 Frc consts  --      1.4561                 1.1602                 1.2495
 IR Inten    --      1.1889                21.9293                 3.2544

                     19                     20                     21
                      A                      A                      A
 Frequencies --   1322.4690              1375.5272              1405.8322
 Red. masses --      1.3472                 1.1941                 1.2647
 Frc consts  --      1.3882                 1.3312                 1.4726
 IR Inten    --      4.1503                 8.6528                 0.6162

                     22                     23                     24
                      A                      A                      A
 Frequencies --   1427.5410              1430.0188              1466.9384
 Red. masses --      1.4856                 1.4465                 1.1237
 Frc consts  --      1.7838                 1.7428                 1.4247
 IR Inten    --      9.0678                49.7053                 6.9554

                     25                     26                     27
                      A                      A                      A
 Frequencies --   1483.3028              1491.0395              1522.0325
 Red. masses --      1.0676                 1.0449                 1.0915
 Frc consts  --      1.3840                 1.3687                 1.4897
 IR Inten    --      7.8833                 6.2544                 2.2431

                     28                     29                     30
                      A                      A                      A
 Frequencies --   2982.1644              2998.7271              3017.7454
 Red. masses --      1.0696                 1.0556                 1.0712
 Frc consts  --      5.6047                 5.5928                 5.7478
 IR Inten    --     21.3345                23.8730                49.5721

                     31                     32                     33
                      A                      A                      A
 Frequencies --   3073.6860              3075.9979              3119.4582
 Red. masses --      1.0882                 1.0781                 1.0935
 Frc consts  --      6.0571                 6.0103                 6.2696
 IR Inten    --     15.2987                18.6244                28.4340

                     34                     35                     36
                      A                      A                      A
 Frequencies --   3131.2877              3163.9660              3862.6798
 Red. masses --      1.0980                 1.0881                 1.0658
 Frc consts  --      6.3432                 6.4178                 9.3695
 IR Inten    --     11.2568                21.3862                34.5619

 - Thermochemistry -
 -------------------
 Temperature   298.150 Kelvin.  Pressure   1.00000 Atm.
 Atom     1 has atomic number  8 and mass  15.99491

 Molecular mass:    73.06534 amu.
 Principal axes and moments of inertia in atomic units:
                           1         2         3
     Eigenvalues --   160.60872 699.08511 774.81298
           X            0.99955   0.02800   0.01112
           Y           -0.02760   0.99900  -0.03521
           Z           -0.01210   0.03489   0.99932
 This molecule is an asymmetric top.
 Rotational symmetry number  1.
 Rotational temperatures (Kelvin)      0.53929     0.12390     0.11179
 Rotational constants (GHZ):          11.23688     2.58158     2.32926
 Zero-point vibrational energy     324416.5 (Joules/Mol)
                                   77.53741 (Kcal/Mol)
 Warning -- explicit consideration of   8 degrees of freedom as
           vibrations may cause significant error
 Vibrational temperatures:     90.30   181.94   264.13   370.52   510.40
          (Kelvin)            544.96   690.63   734.42  1214.40  1228.52
                             1393.44  1406.81  1478.91  1607.47  1634.48
                             1665.92  1745.51  1779.91  1902.74  1979.08
                             2022.68  2053.91  2057.48  2110.60  2134.14
                             2145.27  2189.87  4290.67  4314.50  4341.86
                             4422.35  4425.67  4488.20  4505.22  4552.24
                             5557.53

 Zero-point correction=                           0.123564 (Hartree/Particle)
 Thermal correction to Energy=                    0.130495
 Thermal correction to Enthalpy=                  0.131440
 Thermal correction to Gibbs Free Energy=         0.092474
 Sum of electronic and zero-point Energies=           -232.846077
 Sum of electronic and thermal Energies=              -232.839145
 Sum of electronic and thermal Enthalpies=            -232.838201
 Sum of electronic and thermal Free Energies=         -232.877166

                     E (Thermal)             CV                S
                      KCal/Mol        Cal/Mol-Kelvin    Cal/Mol-Kelvin
 Total                   81.887             23.372             82.010
 Electronic               0.000              0.000              1.377
 Translational            0.889              2.981             38.783
 Rotational               0.889              2.981             25.967
 Vibrational             80.110             17.411             15.883
 Vibration     1          0.597              1.972              4.368
 Vibration     2          0.611              1.927              2.999
 Vibration     3          0.631              1.862              2.292
 Vibration     4          0.667              1.750              1.678
 Vibration     5          0.731              1.566              1.145
 Vibration     6          0.749              1.515              1.044
 Vibration     7          0.836              1.294              0.710
 Vibration     8          0.866              1.227              0.633

                           ! Non-Optimized Parameters !
 Normal termination of Gaussian 16 at Mon Mar 11 16:03:06 2019.
