 Gaussian 16, Revision A.03,
 Gaussian 16:  EM64L-G16RevA.03 25-Dec-2016

 ----------------------------------------------
 #p m062x/6-311+g(2df,2p) Opt=(CalcFC,ModRedun)
 ----------------------------------------------

 ----------------------------------------
 Gaussian Input Prepared from Scan Object
 ----------------------------------------
 Symbolic Z-matrix:
 Charge =  0 Multiplicity = 1

 SCF Done:  E(RM062X) =  -233.625211464     A.U. after   11 cycles

  Exact polarizability:   0.000   0.000   0.000   0.000   0.000   0.000
 Approx polarizability:  63.799  -0.230  60.710  -0.286   0.810  61.225

 Optimization completed.
    -- Stationary point found.
 SCF Done:  E(RM062X) =  -233.624566996     A.U. after   10 cycles
 SCF Done:  E(RM062X) =  -233.624970834     A.U. after    9 cycles
 SCF Done:  E(RM062X) =  -233.624971935     A.U. after    7 cycles
 Optimization completed.
 SCF Done:  E(RM062X) =  -233.623907138     A.U. after   10 cycles
 SCF Done:  E(RM062X) =  -233.624335437     A.U. after    9 cycles
 SCF Done:  E(RM062X) =  -233.624336917     A.U. after    7 cycles
 SCF Done:  E(RM062X) =  -233.623000001     A.U. after   10 cycles
 SCF Done:  E(RM062X) =  -233.623486957     A.U. after    9 cycles
 SCF Done:  E(RM062X) =  -233.623488730     A.U. after    7 cycles
 SCF Done:  E(RM062X) =  -233.622589607     A.U. after    6 cycles
 SCF Done:  E(RM062X) =  -233.623654251     A.U. after   10 cycles
 SCF Done:  E(RM062X) =  -233.624069796     A.U. after    9 cycles
 SCF Done:  E(RM062X) =  -233.624070859     A.U. after    7 cycles
 SCF Done:  E(RM062X) =  -233.624560789     A.U. after   10 cycles
 SCF Done:  E(RM062X) =  -233.624940247     A.U. after    9 cycles
 SCF Done:  E(RM062X) =  -233.624941742     A.U. after    6 cycles
    -- Stationary point found.
 SCF Done:  E(RM062X) =  -233.624826973     A.U. after   10 cycles
 SCF Done:  E(RM062X) =  -233.625210430     A.U. after    9 cycles
 SCF Done:  E(RM062X) =  -233.625211465     A.U. after    6 cycles
 Optimization completed.
    -- Stationary point found.

                         Standard orientation:
 ---------------------------------------------------------------------
 Center     Atomic      Atomic             Coordinates (Angstroms)
 Number     Number       Type             X           Y           Z
 ---------------------------------------------------------------------
      1          8           0        0.679153   -0.632870   -0.308870
      2          6           0       -0.421871   -0.009678    0.326541
      3          6           0       -0.582069    1.442934   -0.103059
      4          6           0       -1.642647   -0.835860   -0.026789
      5          6           0        1.933150   -0.126387    0.065626
      6          1           0       -0.259703   -0.045592    1.413325
      7          1           0       -0.676236    1.496304   -1.188602
      8          1           0        0.264201    2.055956    0.203629
      9          1           0       -1.479838    1.868897    0.344363
     10          1           0       -2.528757   -0.444642    0.471695
     11          1           0       -1.497847   -1.872480    0.271725
     12          1           0       -1.807364   -0.807111   -1.104283
     13          1           0        2.114136    0.871956   -0.342339
     14          1           0        2.032094   -0.082270    1.156386
     15          1           0        2.686715   -0.804115   -0.328852
 ---------------------------------------------------------------------

 The electronic state is 1-A.
 Alpha  occ. eigenvalues --  -19.61883 -10.58475 -10.57200 -10.52259 -10.51896
 Alpha  occ. eigenvalues --   -1.15675  -0.88285  -0.78896  -0.76366  -0.66215
 Alpha  occ. eigenvalues --   -0.57209  -0.53942  -0.53432  -0.49720  -0.46117
 Alpha  occ. eigenvalues --   -0.45467  -0.44151  -0.41441  -0.40884  -0.37592
 Alpha  occ. eigenvalues --   -0.32738
 Alpha virt. eigenvalues --    0.01674   0.03002   0.03482   0.03958   0.05589
 Alpha virt. eigenvalues --    0.06606   0.06978   0.07604   0.07801   0.09522
 Alpha virt. eigenvalues --    0.10167   0.11183   0.12179   0.13180   0.13690

 Mulliken charges:
               1
     1  O   -0.126588
     2  C   -0.229512
     3  C   -0.388514
     4  C   -0.421209
     5  C   -0.274210
     6  H    0.161823
     7  H    0.170838
     8  H    0.138245
     9  H    0.142970
    10  H    0.139943
    11  H    0.150349
    12  H    0.158406
    13  H    0.125549
    14  H    0.115847
    15  H    0.136061
 Sum of Mulliken charges =  -0.00000

 Dipole moment (field-independent basis, Debye):
    X=              0.0422    Y=              0.9838    Z=              0.8433  Tot=              1.2965
 Quadrupole moment (field-independent basis, Debye-Ang):
   XX=            -30.8133   YY=            -34.5543   ZZ=            -33.7825
   XY=              0.3858   XZ=              0.2439   YZ=             -0.6259

 Normal termination of Gaussian 16 at Tue Apr 23 22:40:49 2019.
