 Gaussian 16, Revision A.03,
 Gaussian 16:  EM64L-G16RevA.03 25-Dec-2016

 ----------------------------------------------
 #p m062x/6-311+g(2df,2p) Opt=(CalcFC,ModRedun)
 ----------------------------------------------

 ----------------------------------------
 Gaussian Input Prepared from Scan Object
 ----------------------------------------
 Symbolic Z-matrix:
 Charge =  0 Multiplicity = 1

 SCF Done:  E(RM062X) =  -233.625211464     A.U. after   11 cycles

  Exact polarizability:   0.000   0.000   0.000   0.000   0.000   0.000
 Approx polarizability:  63.799  -0.230  60.710  -0.286   0.810  61.225

 Optimization completed.
    -- Stationary point found.
 SCF Done:  E(RM062X) =  -233.623719952     A.U. after    9 cycles
 SCF Done:  E(RM062X) =  -233.624892473     A.U. after    9 cycles
 SCF Done:  E(RM062X) =  -233.624908881     A.U. after    8 cycles
 Optimization completed.
 SCF Done:  E(RM062X) =  -233.622822328     A.U. after    9 cycles
 SCF Done:  E(RM062X) =  -233.624046663     A.U. after    9 cycles
 SCF Done:  E(RM062X) =  -233.624068565     A.U. after    8 cycles
 SCF Done:  E(RM062X) =  -233.621515602     A.U. after    9 cycles
 SCF Done:  E(RM062X) =  -233.622834120     A.U. after    9 cycles
 SCF Done:  E(RM062X) =  -233.622867286     A.U. after    8 cycles
 SCF Done:  E(RM062X) =  -233.622851269     A.U. after    8 cycles
 SCF Done:  E(RM062X) =  -233.622698691     A.U. after    9 cycles
 SCF Done:  E(RM062X) =  -233.624051918     A.U. after    9 cycles
 SCF Done:  E(RM062X) =  -233.624066690     A.U. after    8 cycles
 SCF Done:  E(RM062X) =  -233.623664929     A.U. after    9 cycles
 SCF Done:  E(RM062X) =  -233.624900411     A.U. after    9 cycles
 SCF Done:  E(RM062X) =  -233.624911420     A.U. after    8 cycles
    -- Stationary point found.
 SCF Done:  E(RM062X) =  -233.624022208     A.U. after    9 cycles
 SCF Done:  E(RM062X) =  -233.625199588     A.U. after    9 cycles
 SCF Done:  E(RM062X) =  -233.625211410     A.U. after    8 cycles
 Optimization completed.
    -- Stationary point found.

                         Standard orientation:
 ---------------------------------------------------------------------
 Center     Atomic      Atomic             Coordinates (Angstroms)
 Number     Number       Type             X           Y           Z
 ---------------------------------------------------------------------
      1          8           0        0.679062   -0.632800   -0.308813
      2          6           0       -0.421838   -0.009571    0.326657
      3          6           0       -0.582314    1.442964   -0.103076
      4          6           0       -1.642314   -0.836113   -0.026823
      5          6           0        1.933082   -0.126277    0.065565
      6          1           0       -0.259570   -0.045378    1.413450
      7          1           0       -0.676427    1.496289   -1.188628
      8          1           0        0.263780    2.056224    0.203640
      9          1           0       -1.480241    1.868691    0.344245
     10          1           0       -2.528734   -0.445393    0.471543
     11          1           0       -1.496932   -1.872594    0.271751
     12          1           0       -1.806793   -0.807370   -1.104360
     13          1           0        2.114012    0.872047   -0.342461
     14          1           0        2.032091   -0.082114    1.156317
     15          1           0        2.686624   -0.804019   -0.328930
 ---------------------------------------------------------------------

 The electronic state is 1-A.
 Alpha  occ. eigenvalues --  -19.61883 -10.58474 -10.57200 -10.52259 -10.51895
 Alpha  occ. eigenvalues --   -1.15678  -0.88285  -0.78897  -0.76365  -0.66215
 Alpha  occ. eigenvalues --   -0.57210  -0.53942  -0.53433  -0.49720  -0.46117
 Alpha  occ. eigenvalues --   -0.45467  -0.44150  -0.41439  -0.40884  -0.37593
 Alpha  occ. eigenvalues --   -0.32739
 Alpha virt. eigenvalues --    0.01674   0.03002   0.03482   0.03958   0.05590
 Alpha virt. eigenvalues --    0.06606   0.06979   0.07604   0.07801   0.09522
 Alpha virt. eigenvalues --    0.10167   0.11183   0.12179   0.13180   0.13689

 Mulliken charges:
               1
     1  O   -0.126531
     2  C   -0.229473
     3  C   -0.388612
     4  C   -0.421178
     5  C   -0.274217
     6  H    0.161804
     7  H    0.170839
     8  H    0.138242
     9  H    0.142975
    10  H    0.139927
    11  H    0.150364
    12  H    0.158406
    13  H    0.125554
    14  H    0.115842
    15  H    0.136056
 Sum of Mulliken charges =  -0.00000

 Dipole moment (field-independent basis, Debye):
    X=              0.0427    Y=              0.9838    Z=              0.8431  Tot=              1.2964
 Quadrupole moment (field-independent basis, Debye-Ang):
   XX=            -30.8144   YY=            -34.5544   ZZ=            -33.7820
   XY=              0.3852   XZ=              0.2438   YZ=             -0.6260

 Normal termination of Gaussian 16 at Tue Apr 23 23:20:28 2019.
