 Gaussian 16, Revision A.03,
 Gaussian 16:  EM64L-G16RevA.03 25-Dec-2016

 ----------------------------------------------
 #p m062x/6-311+g(2df,2p) Opt=(CalcFC,ModRedun)
 ----------------------------------------------

 ----------------------------------------
 Gaussian Input Prepared from Scan Object
 ----------------------------------------
 Symbolic Z-matrix:
 Charge =  0 Multiplicity = 1

 SCF Done:  E(RM062X) =  -233.625211464     A.U. after   11 cycles

  Exact polarizability:   0.000   0.000   0.000   0.000   0.000   0.000
 Approx polarizability:  63.799  -0.230  60.710  -0.286   0.810  61.225

 Optimization completed.
    -- Stationary point found.
 SCF Done:  E(RM062X) =  -233.624063493     A.U. after    9 cycles
 SCF Done:  E(RM062X) =  -233.625004284     A.U. after    9 cycles
 SCF Done:  E(RM062X) =  -233.625006004     A.U. after    7 cycles
 Optimization completed.
 SCF Done:  E(RM062X) =  -233.623473839     A.U. after    9 cycles
 SCF Done:  E(RM062X) =  -233.624446688     A.U. after    9 cycles
 SCF Done:  E(RM062X) =  -233.624450407     A.U. after    8 cycles
 SCF Done:  E(RM062X) =  -233.622645696     A.U. after    9 cycles
 SCF Done:  E(RM062X) =  -233.623676419     A.U. after    9 cycles
 SCF Done:  E(RM062X) =  -233.623681614     A.U. after    7 cycles
 SCF Done:  E(RM062X) =  -233.623582227     A.U. after    8 cycles
 SCF Done:  E(RM062X) =  -233.623319966     A.U. after    9 cycles
 SCF Done:  E(RM062X) =  -233.624410050     A.U. after    9 cycles
 SCF Done:  E(RM062X) =  -233.624410974     A.U. after    6 cycles
 SCF Done:  E(RM062X) =  -233.624006049     A.U. after    9 cycles
 SCF Done:  E(RM062X) =  -233.625000571     A.U. after    9 cycles
 SCF Done:  E(RM062X) =  -233.625001956     A.U. after    7 cycles
    -- Stationary point found.
 SCF Done:  E(RM062X) =  -233.624267683     A.U. after    9 cycles
 SCF Done:  E(RM062X) =  -233.625210609     A.U. after    9 cycles
 SCF Done:  E(RM062X) =  -233.625211458     A.U. after    6 cycles
 Optimization completed.
    -- Stationary point found.

                         Standard orientation:
 ---------------------------------------------------------------------
 Center     Atomic      Atomic             Coordinates (Angstroms)
 Number     Number       Type             X           Y           Z
 ---------------------------------------------------------------------
      1          8           0        0.679219   -0.632819   -0.308832
      2          6           0       -0.421865   -0.009679    0.326546
      3          6           0       -0.582230    1.442894   -0.103050
      4          6           0       -1.642593   -0.835940   -0.026809
      5          6           0        1.933208   -0.126309    0.065597
      6          1           0       -0.259653   -0.045569    1.413334
      7          1           0       -0.676456    1.496273   -1.188587
      8          1           0        0.263958    2.056030    0.203624
      9          1           0       -1.480067    1.868716    0.344370
     10          1           0       -2.528716   -0.444803    0.471715
     11          1           0       -1.497730   -1.872548    0.271714
     12          1           0       -1.807339   -0.807173   -1.104298
     13          1           0        2.114156    0.872012   -0.342411
     14          1           0        2.032175   -0.082174    1.156360
     15          1           0        2.686795   -0.804017   -0.328865
 ---------------------------------------------------------------------

 The electronic state is 1-A.
 Alpha  occ. eigenvalues --  -19.61883 -10.58475 -10.57200 -10.52259 -10.51896
 Alpha  occ. eigenvalues --   -1.15675  -0.88286  -0.78896  -0.76366  -0.66215
 Alpha  occ. eigenvalues --   -0.57209  -0.53942  -0.53432  -0.49720  -0.46117
 Alpha  occ. eigenvalues --   -0.45467  -0.44151  -0.41440  -0.40885  -0.37591
 Alpha  occ. eigenvalues --   -0.32738
 Alpha virt. eigenvalues --    0.01674   0.03002   0.03482   0.03958   0.05590
 Alpha virt. eigenvalues --    0.06606   0.06978   0.07604   0.07801   0.09522
 Alpha virt. eigenvalues --    0.10167   0.11183   0.12179   0.13180   0.13689

 Mulliken charges:
               1
     1  O   -0.126579
     2  C   -0.229527
     3  C   -0.388512
     4  C   -0.421196
     5  C   -0.274206
     6  H    0.161820
     7  H    0.170836
     8  H    0.138245
     9  H    0.142973
    10  H    0.139944
    11  H    0.150348
    12  H    0.158407
    13  H    0.125549
    14  H    0.115838
    15  H    0.136060
 Sum of Mulliken charges =  -0.00000

 Dipole moment (field-independent basis, Debye):
    X=              0.0421    Y=              0.9839    Z=              0.8432  Tot=              1.2964
 Quadrupole moment (field-independent basis, Debye-Ang):
   XX=            -30.8131   YY=            -34.5543   ZZ=            -33.7825
   XY=              0.3859   XZ=              0.2439   YZ=             -0.6260

 Normal termination of Gaussian 16 at Tue Apr 23 22:38:22 2019.
