 Gaussian 16, Revision A.03,
 Gaussian 16:  EM64L-G16RevA.03 25-Dec-2016

 ----------------------------------------------
 #p m062x/6-311+g(2df,2p) Opt=(CalcFC,ModRedun)
 ----------------------------------------------

 ----------------------------------------
 Gaussian Input Prepared from Scan Object
 ----------------------------------------
 Symbolic Z-matrix:
 Charge =  0 Multiplicity = 1

 SCF Done:  E(RM062X) =  -233.625211464     A.U. after   11 cycles

  Exact polarizability:   0.000   0.000   0.000   0.000   0.000   0.000
 Approx polarizability:  63.799  -0.230  60.710  -0.286   0.810  61.225

 Optimization completed.
    -- Stationary point found.
 SCF Done:  E(RM062X) =  -233.623789357     A.U. after    9 cycles
 SCF Done:  E(RM062X) =  -233.624924374     A.U. after    9 cycles
 SCF Done:  E(RM062X) =  -233.624940401     A.U. after    8 cycles
 Optimization completed.
 SCF Done:  E(RM062X) =  -233.622980508     A.U. after    9 cycles
 SCF Done:  E(RM062X) =  -233.624142017     A.U. after    9 cycles
 SCF Done:  E(RM062X) =  -233.624163655     A.U. after    8 cycles
 SCF Done:  E(RM062X) =  -233.621738302     A.U. after    9 cycles
 SCF Done:  E(RM062X) =  -233.622976185     A.U. after    9 cycles
 SCF Done:  E(RM062X) =  -233.623011260     A.U. after    8 cycles
 SCF Done:  E(RM062X) =  -233.623115337     A.U. after    8 cycles
 SCF Done:  E(RM062X) =  -233.622897421     A.U. after    9 cycles
 SCF Done:  E(RM062X) =  -233.624198971     A.U. after    9 cycles
 SCF Done:  E(RM062X) =  -233.624208892     A.U. after    8 cycles
 SCF Done:  E(RM062X) =  -233.623737613     A.U. after    9 cycles
 SCF Done:  E(RM062X) =  -233.624942620     A.U. after    9 cycles
 SCF Done:  E(RM062X) =  -233.624949662     A.U. after    7 cycles
    -- Stationary point found.
 SCF Done:  E(RM062X) =  -233.624052695     A.U. after    9 cycles
 SCF Done:  E(RM062X) =  -233.625202536     A.U. after    9 cycles
 SCF Done:  E(RM062X) =  -233.625211449     A.U. after    7 cycles
 Optimization completed.
    -- Stationary point found.

                         Standard orientation:
 ---------------------------------------------------------------------
 Center     Atomic      Atomic             Coordinates (Angstroms)
 Number     Number       Type             X           Y           Z
 ---------------------------------------------------------------------
      1          8           0        0.679045   -0.632871   -0.308874
      2          6           0       -0.421946   -0.009657    0.326553
      3          6           0       -0.581791    1.442959   -0.103092
      4          6           0       -1.642806   -0.835715   -0.026801
      5          6           0        1.933120   -0.126569    0.065630
      6          1           0       -0.259794   -0.045593    1.413343
      7          1           0       -0.675575    1.496388   -1.188654
      8          1           0        0.264642    2.055514    0.204081
      9          1           0       -1.479448    1.869359    0.344131
     10          1           0       -2.528866   -0.444267    0.471593
     11          1           0       -1.498252   -1.872327    0.271868
     12          1           0       -1.807463   -0.807048   -1.104307
     13          1           0        2.114278    0.871761   -0.342269
     14          1           0        2.032090   -0.082553    1.156396
     15          1           0        2.686568   -0.804380   -0.328927
 ---------------------------------------------------------------------

 The electronic state is 1-A.
 Alpha  occ. eigenvalues --  -19.61883 -10.58474 -10.57200 -10.52259 -10.51896
 Alpha  occ. eigenvalues --   -1.15675  -0.88285  -0.78896  -0.76367  -0.66214
 Alpha  occ. eigenvalues --   -0.57209  -0.53942  -0.53432  -0.49720  -0.46117
 Alpha  occ. eigenvalues --   -0.45469  -0.44151  -0.41440  -0.40884  -0.37591
 Alpha  occ. eigenvalues --   -0.32738
 Alpha virt. eigenvalues --    0.01674   0.03002   0.03482   0.03958   0.05589
 Alpha virt. eigenvalues --    0.06606   0.06978   0.07604   0.07801   0.09522
 Alpha virt. eigenvalues --    0.10167   0.11183   0.12179   0.13180   0.13689

 Mulliken charges:
               1
     1  O   -0.126584
     2  C   -0.229483
     3  C   -0.388466
     4  C   -0.421285
     5  C   -0.274218
     6  H    0.161827
     7  H    0.170844
     8  H    0.138240
     9  H    0.142965
    10  H    0.139940
    11  H    0.150342
    12  H    0.158404
    13  H    0.125558
    14  H    0.115852
    15  H    0.136065
 Sum of Mulliken charges =  -0.00000

 Dipole moment (field-independent basis, Debye):
    X=              0.0424    Y=              0.9838    Z=              0.8434  Tot=              1.2965
 Quadrupole moment (field-independent basis, Debye-Ang):
   XX=            -30.8133   YY=            -34.5546   ZZ=            -33.7820
   XY=              0.3852   XZ=              0.2439   YZ=             -0.6257

 Normal termination of Gaussian 16 at Tue Apr 23 23:21:28 2019.
