 Gaussian 16, Revision A.03,
 Gaussian 16:  EM64L-G16RevA.03 25-Dec-2016

 ----------------------------------------------
 #p m062x/6-311+g(2df,2p) Opt=(CalcFC,ModRedun)
 ----------------------------------------------

 ----------------------------------------
 Gaussian Input Prepared from Scan Object
 ----------------------------------------
 Symbolic Z-matrix:
 Charge =  0 Multiplicity = 1

 SCF Done:  E(RM062X) =  -233.625211464     A.U. after   11 cycles

  Exact polarizability:   0.000   0.000   0.000   0.000   0.000   0.000
 Approx polarizability:  63.799  -0.230  60.710  -0.286   0.810  61.225

 Optimization completed.
    -- Stationary point found.
 SCF Done:  E(RM062X) =  -233.624059577     A.U. after    9 cycles
 SCF Done:  E(RM062X) =  -233.625032601     A.U. after    9 cycles
 SCF Done:  E(RM062X) =  -233.625052817     A.U. after    9 cycles
 SCF Done:  E(RM062X) =  -233.625055855     A.U. after    8 cycles
 SCF Done:  E(RM062X) =  -233.625055931     A.U. after    6 cycles
 Optimization completed.
 SCF Done:  E(RM062X) =  -233.623625692     A.U. after    9 cycles
 SCF Done:  E(RM062X) =  -233.624688175     A.U. after    9 cycles
 SCF Done:  E(RM062X) =  -233.624704728     A.U. after    9 cycles
 SCF Done:  E(RM062X) =  -233.624705627     A.U. after    8 cycles
 SCF Done:  E(RM062X) =  -233.624443015     A.U. after    6 cycles
 SCF Done:  E(RM062X) =  -233.624052796     A.U. after    9 cycles
 SCF Done:  E(RM062X) =  -233.625011179     A.U. after    9 cycles
 SCF Done:  E(RM062X) =  -233.625014208     A.U. after    7 cycles
 SCF Done:  E(RM062X) =  -233.625014240     A.U. after    6 cycles
    -- Stationary point found.
 SCF Done:  E(RM062X) =  -233.624281772     A.U. after    9 cycles
 SCF Done:  E(RM062X) =  -233.625206746     A.U. after    9 cycles
 SCF Done:  E(RM062X) =  -233.625211392     A.U. after    8 cycles
 SCF Done:  E(RM062X) =  -233.625211471     A.U. after    7 cycles
 SCF Done:  E(RM062X) =  -233.625211464     A.U. after    5 cycles
 Optimization completed.
    -- Stationary point found.

                         Standard orientation:
 ---------------------------------------------------------------------
 Center     Atomic      Atomic             Coordinates (Angstroms)
 Number     Number       Type             X           Y           Z
 ---------------------------------------------------------------------
      1          8           0        0.679178   -0.632895   -0.308867
      2          6           0       -0.421837   -0.009691    0.326547
      3          6           0       -0.582107    1.442904   -0.103055
      4          6           0       -1.642640   -0.835851   -0.026794
      5          6           0        1.933147   -0.126341    0.065615
      6          1           0       -0.259616   -0.045610    1.413333
      7          1           0       -0.676229    1.496289   -1.188600
      8          1           0        0.264080    2.056010    0.203694
      9          1           0       -1.479972    1.868756    0.344278
     10          1           0       -2.528718   -0.444656    0.471766
     11          1           0       -1.497848   -1.872479    0.271696
     12          1           0       -1.807416   -0.807043   -1.104277
     13          1           0        2.114091    0.871989   -0.342388
     14          1           0        2.032076   -0.082181    1.156379
     15          1           0        2.686752   -0.804047   -0.328821
 ---------------------------------------------------------------------

 The electronic state is 1-A.
 Alpha  occ. eigenvalues --  -19.61883 -10.58475 -10.57200 -10.52259 -10.51896
 Alpha  occ. eigenvalues --   -1.15676  -0.88285  -0.78896  -0.76366  -0.66215
 Alpha  occ. eigenvalues --   -0.57209  -0.53943  -0.53432  -0.49720  -0.46117
 Alpha  occ. eigenvalues --   -0.45467  -0.44151  -0.41440  -0.40885  -0.37592
 Alpha  occ. eigenvalues --   -0.32738
 Alpha virt. eigenvalues --    0.01674   0.03002   0.03482   0.03958   0.05589
 Alpha virt. eigenvalues --    0.06606   0.06978   0.07604   0.07801   0.09522
 Alpha virt. eigenvalues --    0.10167   0.11183   0.12179   0.13180   0.13689

 Mulliken charges:
               1
     1  O   -0.126584
     2  C   -0.229514
     3  C   -0.388517
     4  C   -0.421215
     5  C   -0.274205
     6  H    0.161819
     7  H    0.170847
     8  H    0.138246
     9  H    0.142969
    10  H    0.139945
    11  H    0.150348
    12  H    0.158406
    13  H    0.125551
    14  H    0.115844
    15  H    0.136060
 Sum of Mulliken charges =  -0.00000

 Dipole moment (field-independent basis, Debye):
    X=              0.0422    Y=              0.9839    Z=              0.8432  Tot=              1.2965
 Quadrupole moment (field-independent basis, Debye-Ang):
   XX=            -30.8133   YY=            -34.5545   ZZ=            -33.7825
   XY=              0.3859   XZ=              0.2440   YZ=             -0.6261

 Normal termination of Gaussian 16 at Mon Mar 11 21:06:34 2019.
