 Gaussian 16, Revision A.03,
 Gaussian 16:  EM64L-G16RevA.03 25-Dec-2016

 ----------------------------------------------
 #p m062x/6-311+g(2df,2p) Opt=(CalcFC,ModRedun)
 ----------------------------------------------

 ----------------------------------------
 Gaussian Input Prepared from Scan Object
 ----------------------------------------
 Symbolic Z-matrix:
 Charge =  0 Multiplicity = 1

 SCF Done:  E(RM062X) =  -233.625211464     A.U. after   11 cycles

  Exact polarizability:   0.000   0.000   0.000   0.000   0.000   0.000
 Approx polarizability:  63.799  -0.230  60.710  -0.286   0.810  61.225

 Optimization completed.
    -- Stationary point found.
 SCF Done:  E(RM062X) =  -233.624078589     A.U. after    9 cycles
 SCF Done:  E(RM062X) =  -233.625011303     A.U. after    9 cycles
 SCF Done:  E(RM062X) =  -233.625013774     A.U. after    8 cycles
 SCF Done:  E(RM062X) =  -233.625014230     A.U. after    7 cycles
 Optimization completed.
 SCF Done:  E(RM062X) =  -233.623494646     A.U. after    9 cycles
 SCF Done:  E(RM062X) =  -233.624438861     A.U. after    9 cycles
 SCF Done:  E(RM062X) =  -233.624442760     A.U. after    8 cycles
 SCF Done:  E(RM062X) =  -233.624443008     A.U. after    7 cycles
 SCF Done:  E(RM062X) =  -233.622646471     A.U. after   10 cycles
 SCF Done:  E(RM062X) =  -233.624705838     A.U. after    7 cycles
 SCF Done:  E(RM062X) =  -233.623981743     A.U. after   10 cycles
 SCF Done:  E(RM062X) =  -233.625033694     A.U. after    9 cycles
 SCF Done:  E(RM062X) =  -233.625053140     A.U. after    9 cycles
 SCF Done:  E(RM062X) =  -233.625055885     A.U. after    8 cycles
 SCF Done:  E(RM062X) =  -233.625055931     A.U. after    6 cycles
    -- Stationary point found.
 SCF Done:  E(RM062X) =  -233.624173253     A.U. after   10 cycles
 SCF Done:  E(RM062X) =  -233.625203039     A.U. after   10 cycles
 SCF Done:  E(RM062X) =  -233.625211388     A.U. after    8 cycles
 SCF Done:  E(RM062X) =  -233.625211452     A.U. after    6 cycles
 Optimization completed.
    -- Stationary point found.

                         Standard orientation:
 ---------------------------------------------------------------------
 Center     Atomic      Atomic             Coordinates (Angstroms)
 Number     Number       Type             X           Y           Z
 ---------------------------------------------------------------------
      1          8           0        0.679222   -0.632678   -0.309167
      2          6           0       -0.421794   -0.009703    0.326483
      3          6           0       -0.582272    1.442886   -0.103041
      4          6           0       -1.642568   -0.835979   -0.026685
      5          6           0        1.933161   -0.126345    0.065757
      6          1           0       -0.259388   -0.045659    1.413240
      7          1           0       -0.677147    1.496254   -1.188520
      8          1           0        0.264216    2.055899    0.203070
      9          1           0       -1.479773    1.868847    0.344918
     10          1           0       -2.528625   -0.444845    0.471964
     11          1           0       -1.497658   -1.872588    0.271813
     12          1           0       -1.807469   -0.807211   -1.104150
     13          1           0        2.114173    0.872196   -0.341707
     14          1           0        2.031920   -0.082763    1.156564
     15          1           0        2.686813   -0.803853   -0.328943
 ---------------------------------------------------------------------

 The electronic state is 1-A.
 Alpha  occ. eigenvalues --  -19.61883 -10.58475 -10.57201 -10.52259 -10.51896
 Alpha  occ. eigenvalues --   -1.15676  -0.88285  -0.78895  -0.76366  -0.66216
 Alpha  occ. eigenvalues --   -0.57209  -0.53942  -0.53432  -0.49720  -0.46116
 Alpha  occ. eigenvalues --   -0.45467  -0.44152  -0.41441  -0.40884  -0.37593
 Alpha  occ. eigenvalues --   -0.32738
 Alpha virt. eigenvalues --    0.01674   0.03002   0.03482   0.03958   0.05590
 Alpha virt. eigenvalues --    0.06606   0.06978   0.07604   0.07802   0.09522
 Alpha virt. eigenvalues --    0.10167   0.11183   0.12180   0.13180   0.13691

 Mulliken charges:
               1
     1  O   -0.126588
     2  C   -0.229492
     3  C   -0.388501
     4  C   -0.421186
     5  C   -0.274200
     6  H    0.161809
     7  H    0.170809
     8  H    0.138228
     9  H    0.142981
    10  H    0.139941
    11  H    0.150344
    12  H    0.158409
    13  H    0.125543
    14  H    0.115837
    15  H    0.136065
 Sum of Mulliken charges =  -0.00000

 Dipole moment (field-independent basis, Debye):
    X=              0.0422    Y=              0.9835    Z=              0.8439  Tot=              1.2966
 Quadrupole moment (field-independent basis, Debye-Ang):
   XX=            -30.8133   YY=            -34.5540   ZZ=            -33.7830
   XY=              0.3859   XZ=              0.2446   YZ=             -0.6264

 Normal termination of Gaussian 16 at Tue Mar 12 01:35:13 2019.
