 Gaussian 16, Revision A.03,
 Gaussian 16:  EM64L-G16RevA.03 25-Dec-2016

 ----------------------------------------------
 #p m062x/6-311+g(2df,2p) Opt=(CalcFC,ModRedun)
 ----------------------------------------------

 ----------------------------------------
 Gaussian Input Prepared from Scan Object
 ----------------------------------------
 Symbolic Z-matrix:
 Charge =  0 Multiplicity = 1

 SCF Done:  E(RM062X) =  -233.625211464     A.U. after   11 cycles

  Exact polarizability:   0.000   0.000   0.000   0.000   0.000   0.000
 Approx polarizability:  63.799  -0.230  60.710  -0.286   0.810  61.225

 Optimization completed.
    -- Stationary point found.
 SCF Done:  E(RM062X) =  -233.618207427     A.U. after   11 cycles
 SCF Done:  E(RM062X) =  -233.623476519     A.U. after   10 cycles
 SCF Done:  E(RM062X) =  -233.623910535     A.U. after    9 cycles
 SCF Done:  E(RM062X) =  -233.623939571     A.U. after    8 cycles
 SCF Done:  E(RM062X) =  -233.623946990     A.U. after    8 cycles
 SCF Done:  E(RM062X) =  -233.623947066     A.U. after    6 cycles
 Optimization completed.
 SCF Done:  E(RM062X) =  -233.615702263     A.U. after   11 cycles
 SCF Done:  E(RM062X) =  -233.622341177     A.U. after   10 cycles
 SCF Done:  E(RM062X) =  -233.622781302     A.U. after    9 cycles
 SCF Done:  E(RM062X) =  -233.621989835     A.U. after   10 cycles
 SCF Done:  E(RM062X) =  -233.622581740     A.U. after   10 cycles
 SCF Done:  E(RM062X) =  -233.622648919     A.U. after    8 cycles
 SCF Done:  E(RM062X) =  -233.622655842     A.U. after    8 cycles
 SCF Done:  E(RM062X) =  -233.622656134     A.U. after    6 cycles
    -- Stationary point found.
 SCF Done:  E(RM062X) =  -233.620138120     A.U. after   11 cycles
 SCF Done:  E(RM062X) =  -233.625066261     A.U. after   10 cycles
 SCF Done:  E(RM062X) =  -233.625207632     A.U. after    9 cycles
 SCF Done:  E(RM062X) =  -233.625211150     A.U. after    7 cycles
 SCF Done:  E(RM062X) =  -233.625211455     A.U. after    6 cycles
 Optimization completed.
    -- Stationary point found.

                         Standard orientation:
 ---------------------------------------------------------------------
 Center     Atomic      Atomic             Coordinates (Angstroms)
 Number     Number       Type             X           Y           Z
 ---------------------------------------------------------------------
      1          8           0        0.679181   -0.632874   -0.308892
      2          6           0       -0.421853   -0.009705    0.326528
      3          6           0       -0.582042    1.442895   -0.103038
      4          6           0       -1.642697   -0.835801   -0.026787
      5          6           0        1.933144   -0.126386    0.065638
      6          1           0       -0.259608   -0.045693    1.413311
      7          1           0       -0.675288    1.496327   -1.188661
      8          1           0        0.263812    2.056102    0.204433
      9          1           0       -1.480335    1.868574    0.343597
     10          1           0       -2.528737   -0.444536    0.471781
     11          1           0       -1.498040   -1.872445    0.271698
     12          1           0       -1.807478   -0.806951   -1.104270
     13          1           0        2.114058    0.871990   -0.342291
     14          1           0        2.032141   -0.082334    1.156394
     15          1           0        2.686718   -0.804067   -0.328905
 ---------------------------------------------------------------------

 The electronic state is 1-A.
 Alpha  occ. eigenvalues --  -19.61883 -10.58475 -10.57200 -10.52259 -10.51896
 Alpha  occ. eigenvalues --   -1.15676  -0.88286  -0.78895  -0.76366  -0.66215
 Alpha  occ. eigenvalues --   -0.57209  -0.53943  -0.53432  -0.49720  -0.46118
 Alpha  occ. eigenvalues --   -0.45468  -0.44151  -0.41441  -0.40884  -0.37592
 Alpha  occ. eigenvalues --   -0.32738
 Alpha virt. eigenvalues --    0.01674   0.03002   0.03482   0.03958   0.05590
 Alpha virt. eigenvalues --    0.06606   0.06978   0.07605   0.07801   0.09522
 Alpha virt. eigenvalues --    0.10167   0.11183   0.12179   0.13181   0.13689

 Mulliken charges:
               1
     1  O   -0.126579
     2  C   -0.229468
     3  C   -0.388555
     4  C   -0.421249
     5  C   -0.274200
     6  H    0.161809
     7  H    0.170892
     8  H    0.138261
     9  H    0.142941
    10  H    0.139951
    11  H    0.150346
    12  H    0.158398
    13  H    0.125551
    14  H    0.115841
    15  H    0.136059
 Sum of Mulliken charges =  -0.00000

 Dipole moment (field-independent basis, Debye):
    X=              0.0421    Y=              0.9838    Z=              0.8433  Tot=              1.2965
 Quadrupole moment (field-independent basis, Debye-Ang):
   XX=            -30.8132   YY=            -34.5545   ZZ=            -33.7826
   XY=              0.3858   XZ=              0.2441   YZ=             -0.6262

 Normal termination of Gaussian 16 at Fri Mar 29 15:08:14 2019.
