 Gaussian 16, Revision A.03,
 Gaussian 16:  EM64L-G16RevA.03 25-Dec-2016

 ----------------------------------------------
 #p m062x/6-311+g(2df,2p) Opt=(CalcFC,ModRedun)
 ----------------------------------------------

 ----------------------------------------
 Gaussian Input Prepared from Scan Object
 ----------------------------------------
 Symbolic Z-matrix:
 Charge =  0 Multiplicity = 1

 SCF Done:  E(RM062X) =  -233.625211464     A.U. after   11 cycles

  Exact polarizability:   0.000   0.000   0.000   0.000   0.000   0.000
 Approx polarizability:  63.799  -0.230  60.710  -0.286   0.810  61.225

 Optimization completed.
    -- Stationary point found.
 SCF Done:  E(RM062X) =  -233.614655932     A.U. after   11 cycles
 SCF Done:  E(RM062X) =  -233.623399285     A.U. after   10 cycles
 SCF Done:  E(RM062X) =  -233.624101167     A.U. after   10 cycles
 SCF Done:  E(RM062X) =  -233.624159465     A.U. after    9 cycles
 SCF Done:  E(RM062X) =  -233.624166824     A.U. after    8 cycles
 SCF Done:  E(RM062X) =  -233.624167438     A.U. after    7 cycles
 Optimization completed.
 SCF Done:  E(RM062X) =  -233.612208965     A.U. after   11 cycles
 SCF Done:  E(RM062X) =  -233.621597454     A.U. after   10 cycles
 SCF Done:  E(RM062X) =  -233.622413020     A.U. after   10 cycles
 SCF Done:  E(RM062X) =  -233.611168820     A.U. after   11 cycles
 SCF Done:  E(RM062X) =  -233.622662081     A.U. after   10 cycles
 SCF Done:  E(RM062X) =  -233.623617252     A.U. after   10 cycles
 SCF Done:  E(RM062X) =  -233.623631750     A.U. after    8 cycles
 SCF Done:  E(RM062X) =  -233.623632196     A.U. after    6 cycles
    -- Stationary point found.
 SCF Done:  E(RM062X) =  -233.615493155     A.U. after   11 cycles
 SCF Done:  E(RM062X) =  -233.624821126     A.U. after   10 cycles
 SCF Done:  E(RM062X) =  -233.625194681     A.U. after    9 cycles
 SCF Done:  E(RM062X) =  -233.625211104     A.U. after    8 cycles
 SCF Done:  E(RM062X) =  -233.625211473     A.U. after    6 cycles
 Optimization completed.
    -- Stationary point found.

                         Standard orientation:
 ---------------------------------------------------------------------
 Center     Atomic      Atomic             Coordinates (Angstroms)
 Number     Number       Type             X           Y           Z
 ---------------------------------------------------------------------
      1          8           0        0.679056   -0.633273   -0.308519
      2          6           0       -0.421904   -0.009685    0.326612
      3          6           0       -0.581632    1.442942   -0.103076
      4          6           0       -1.642880   -0.835507   -0.026923
      5          6           0        1.933067   -0.126446    0.065479
      6          1           0       -0.259924   -0.045586    1.413435
      7          1           0       -0.674895    1.496381   -1.188696
      8          1           0        0.264406    2.055910    0.204371
      9          1           0       -1.479796    1.868890    0.343563
     10          1           0       -2.528895   -0.444172    0.471638
     11          1           0       -1.498341   -1.872204    0.271450
     12          1           0       -1.807586   -0.806533   -1.104412
     13          1           0        2.113942    0.871550   -0.343326
     14          1           0        2.032122   -0.081455    1.156205
     15          1           0        2.686611   -0.804417   -0.328625
 ---------------------------------------------------------------------

 The electronic state is 1-A.
 Alpha  occ. eigenvalues --  -19.61883 -10.58475 -10.57200 -10.52260 -10.51896
 Alpha  occ. eigenvalues --   -1.15675  -0.88285  -0.78897  -0.76366  -0.66214
 Alpha  occ. eigenvalues --   -0.57209  -0.53943  -0.53431  -0.49721  -0.46117
 Alpha  occ. eigenvalues --   -0.45468  -0.44150  -0.41440  -0.40886  -0.37592
 Alpha  occ. eigenvalues --   -0.32738
 Alpha virt. eigenvalues --    0.01674   0.03002   0.03482   0.03958   0.05589
 Alpha virt. eigenvalues --    0.06606   0.06979   0.07605   0.07801   0.09522
 Alpha virt. eigenvalues --    0.10167   0.11184   0.12179   0.13181   0.13688

 Mulliken charges:
               1
     1  O   -0.126602
     2  C   -0.229530
     3  C   -0.388519
     4  C   -0.421272
     5  C   -0.274212
     6  H    0.161833
     7  H    0.170896
     8  H    0.138267
     9  H    0.142957
    10  H    0.139956
    11  H    0.150351
    12  H    0.158395
    13  H    0.125564
    14  H    0.115861
    15  H    0.136055
 Sum of Mulliken charges =  -0.00000

 Dipole moment (field-independent basis, Debye):
    X=              0.0423    Y=              0.9846    Z=              0.8425  Tot=              1.2965
 Quadrupole moment (field-independent basis, Debye-Ang):
   XX=            -30.8131   YY=            -34.5558   ZZ=            -33.7816
   XY=              0.3860   XZ=              0.2431   YZ=             -0.6258

 Normal termination of Gaussian 16 at Fri Mar 29 15:34:02 2019.
