 Gaussian 16, Revision A.03,
 Gaussian 16:  EM64L-G16RevA.03 25-Dec-2016

 ----------------------------------------------------------------------
 #p m062x/6-311+g(2df,2p) opt=(calcfc,verytight,gdiis,maxcycles=900) fr
 eq iop(7/33=1,2/16=3)
 ----------------------------------------------------------------------

 ------------------------------
 Gaussian input prepared by ASE
 ------------------------------
 Symbolic Z-matrix:
 Charge =  0 Multiplicity = 1

 SCF Done:  E(RM062X) =  -233.614770188     A.U. after   11 cycles
 SCF Done:  E(RM062X) =  -233.621622490     A.U. after   10 cycles
 SCF Done:  E(RM062X) =  -233.622006200     A.U. after   10 cycles
 SCF Done:  E(RM062X) =  -233.622427117     A.U. after   10 cycles
 SCF Done:  E(RM062X) =  -233.622508152     A.U. after    9 cycles
 SCF Done:  E(RM062X) =  -233.622537350     A.U. after    8 cycles
 SCF Done:  E(RM062X) =  -233.622544145     A.U. after    8 cycles
 SCF Done:  E(RM062X) =  -233.622548120     A.U. after    8 cycles
 SCF Done:  E(RM062X) =  -233.622550231     A.U. after    8 cycles
 SCF Done:  E(RM062X) =  -233.622551968     A.U. after    8 cycles
 SCF Done:  E(RM062X) =  -233.622581053     A.U. after    9 cycles
 SCF Done:  E(RM062X) =  -233.622581505     A.U. after    8 cycles
 SCF Done:  E(RM062X) =  -233.622581646     A.U. after    7 cycles
 SCF Done:  E(RM062X) =  -233.622581689     A.U. after    6 cycles
 SCF Done:  E(RM062X) =  -233.622581726     A.U. after    6 cycles
 SCF Done:  E(RM062X) =  -233.622581775     A.U. after    6 cycles
 SCF Done:  E(RM062X) =  -233.622581776     A.U. after    3 cycles
 SCF Done:  E(RM062X) =  -233.622581776     A.U. after    3 cycles
 SCF Done:  E(RM062X) =  -233.622581776     A.U. after    2 cycles
 Optimization completed.
    -- Stationary point found.
 Normal termination of Gaussian 16 at Tue Apr  9 01:49:01 2019.

 ----------------------------------------------------------------------
 #P Geom=AllCheck Guess=TCheck SCRF=Check Test GenChk RM062X/6-311+G(2d
 f,2p) Freq
 ----------------------------------------------------------------------

 Structure from the checkpoint file:  "/scratch/underkoffler.c/gaussian_scratch/Gau-16236.chk"
 ------------------------------
 Gaussian input prepared by ASE
 ------------------------------
 Charge =  0 Multiplicity = 1

                         Standard orientation:
 ---------------------------------------------------------------------
 Center     Atomic      Atomic             Coordinates (Angstroms)
 Number     Number       Type             X           Y           Z
 ---------------------------------------------------------------------
      1          8           0       -0.859690   -0.028724    0.722853
      2          6           0        0.537319    0.001583    0.471984
      3          6           0        1.019892   -1.247245   -0.255750
      4          6           0        0.970707    1.276533   -0.240875
      5          6           0       -1.693207   -0.008897   -0.407803
      6          1           0        0.969119    0.003785    1.474147
      7          1           0        2.109120   -1.283057   -0.246291
      8          1           0        0.639266   -2.142951    0.233622
      9          1           0        0.700531   -1.254434   -1.298378
     10          1           0        2.057456    1.356541   -0.226731
     11          1           0        0.654473    1.280751   -1.284547
     12          1           0        0.552382    2.151432    0.255614
     13          1           0       -1.517576   -0.864636   -1.065888
     14          1           0       -1.579520    0.911412   -0.987648
     15          1           0       -2.715995   -0.060892   -0.042061
 ---------------------------------------------------------------------

 SCF Done:  E(RM062X) =  -233.622581776     A.U. after    1 cycles

 The electronic state is 1-A.
 Alpha  occ. eigenvalues --  -19.61608 -10.58441 -10.56992 -10.52330 -10.52296
 Alpha  occ. eigenvalues --   -1.15244  -0.88031  -0.78394  -0.78044  -0.65245
 Alpha  occ. eigenvalues --   -0.57224  -0.53818  -0.53506  -0.48075  -0.47629
 Alpha  occ. eigenvalues --   -0.46350  -0.44578  -0.41394  -0.41343  -0.36621
 Alpha  occ. eigenvalues --   -0.32531
 Alpha virt. eigenvalues --    0.01331   0.02757   0.03446   0.03865   0.06023
 Alpha virt. eigenvalues --    0.06642   0.06833   0.07209   0.07608   0.09392
 Alpha virt. eigenvalues --    0.10556   0.11034   0.12383   0.12612   0.13645

 Mulliken charges:
               1
     1  O   -0.151538
     2  C   -0.129503
     3  C   -0.426264
     4  C   -0.432364
     5  C   -0.315391
     6  H    0.158718
     7  H    0.143769
     8  H    0.161907
     9  H    0.143830
    10  H    0.144558
    11  H    0.145598
    12  H    0.162737
    13  H    0.125351
    14  H    0.125302
    15  H    0.143290
 Sum of Mulliken charges =  -0.00000

 Dipole moment (field-independent basis, Debye):
    X=              0.6779    Y=              0.0481    Z=             -1.2026  Tot=              1.3813
 Quadrupole moment (field-independent basis, Debye-Ang):
   XX=            -31.8047   YY=            -33.5321   ZZ=            -34.6563
   XY=             -0.0164   XZ=              2.3389   YZ=              0.0645

  Exact polarizability:  58.831  -0.029  54.609   1.151   0.007  49.350
 Approx polarizability:  63.813   0.024  59.929   0.946  -0.032  61.134

                      1                      2                      3
                      A                      A                      A
 Frequencies --     29.6701               176.2222               261.1424
 Red. masses --      1.6582                 1.1023                 1.1007
 Frc consts  --      0.0009                 0.0202                 0.0442
 IR Inten    --      2.5457                 1.6637                 0.0954

                      4                      5                      6
                      A                      A                      A
 Frequencies --    278.2083               323.7950               373.9674
 Red. masses --      1.2496                 2.2463                 2.1829
 Frc consts  --      0.0570                 0.1388                 0.1799
 IR Inten    --      1.9757                 0.6557                 1.4952

                      7                      8                      9
                      A                      A                      A
 Frequencies --    425.1765               555.2650               808.4725
 Red. masses --      3.1658                 2.1478                 2.9169
 Frc consts  --      0.3372                 0.3902                 1.1233
 IR Inten    --      8.9345                 2.1811                 7.1873

                     10                     11                     12
                      A                      A                      A
 Frequencies --    924.1060               940.4739               942.8766
 Red. masses --      1.2179                 1.3759                 2.2492
 Frc consts  --      0.6128                 0.7170                 1.1781
 IR Inten    --      0.1645                 0.0161                16.5212

                     13                     14                     15
                      A                      A                      A
 Frequencies --   1092.0636              1149.4308              1185.1709
 Red. masses --      2.1861                 2.1375                 1.3003
 Frc consts  --      1.5361                 1.6639                 1.0761
 IR Inten    --     22.9370                16.0257                 2.4545

                     16                     17                     18
                      A                      A                      A
 Frequencies --   1186.2861              1222.6025              1252.0795
 Red. masses --      1.6873                 2.3162                 2.4759
 Frc consts  --      1.3990                 2.0399                 2.2869
 IR Inten    --      4.9166                62.2893                98.1678

                     19                     20                     21
                      A                      A                      A
 Frequencies --   1369.1964              1400.5402              1402.4203
 Red. masses --      1.2936                 1.3908                 1.2064
 Frc consts  --      1.4289                 1.6074                 1.3980
 IR Inten    --      1.5877                23.8708                 0.7804

                     22                     23                     24
                      A                      A                      A
 Frequencies --   1419.9980              1480.0680              1486.8991
 Red. masses --      1.2720                 1.1248                 1.0501
 Frc consts  --      1.5112                 1.4518                 1.3678
 IR Inten    --     22.9455                 1.2732                 1.1552

                     25                     26                     27
                      A                      A                      A
 Frequencies --   1491.6599              1501.5093              1514.0031
 Red. masses --      1.0515                 1.0534                 1.0462
 Frc consts  --      1.3784                 1.3993                 1.4129
 IR Inten    --      0.8449                 8.1938                 3.8937

                     28                     29                     30
                      A                      A                      A
 Frequencies --   1520.2423              1521.1444              3031.5352
 Red. masses --      1.0742                 1.0506                 1.0360
 Frc consts  --      1.4628                 1.4323                 5.6097
 IR Inten    --      0.3533                13.7076                39.3403

                     31                     32                     33
                      A                      A                      A
 Frequencies --   3062.8908              3067.6686              3077.2996
 Red. masses --      1.0379                 1.0374                 1.0841
 Frc consts  --      5.7368                 5.7518                 6.0487
 IR Inten    --      5.5106                 8.2178                13.6159

                     34                     35                     36
                      A                      A                      A
 Frequencies --   3084.5676              3132.6440              3139.5010
 Red. masses --      1.1002                 1.1018                 1.0999
 Frc consts  --      6.1674                 6.3707                 6.3873
 IR Inten    --     52.0331                 0.0962                56.9806

                     37                     38                     39
                      A                      A                      A
 Frequencies --   3144.0130              3145.5255              3147.5566
 Red. masses --      1.1032                 1.1021                 1.0994
 Frc consts  --      6.4250                 6.4245                 6.4171
 IR Inten    --     12.0040                 6.4171                29.6395

 - Thermochemistry -
 -------------------
 Temperature   298.150 Kelvin.  Pressure   1.00000 Atm.
 Atom     1 has atomic number  8 and mass  15.99491

 Molecular mass:    74.07317 amu.
 Principal axes and moments of inertia in atomic units:
                           1         2         3
     Eigenvalues --   278.90479 426.14442 546.31362
           X            0.99958  -0.00234   0.02905
           Y            0.00228   1.00000   0.00188
           Z           -0.02906  -0.00182   0.99958
 This molecule is an asymmetric top.
 Rotational symmetry number  1.
 Rotational temperatures (Kelvin)      0.31055     0.20325     0.15854
 Rotational constants (GHZ):           6.47081     4.23505     3.30349
 Zero-point vibrational energy     360482.0 (Joules/Mol)
                                   86.15728 (Kcal/Mol)
 Warning -- explicit consideration of   8 degrees of freedom as
           vibrations may cause significant error
 Vibrational temperatures:     42.69   253.54   375.73   400.28   465.87
          (Kelvin)            538.06   611.73   798.90  1163.21  1329.58
                             1353.13  1356.59  1571.24  1653.77  1705.20
                             1706.80  1759.05  1801.46  1969.97  2015.07
                             2017.77  2043.06  2129.49  2139.32  2146.17
                             2160.34  2178.31  2187.29  2188.59  4361.70
                             4406.82  4413.69  4427.55  4438.00  4507.18
                             4517.04  4523.53  4525.71  4528.63

 Zero-point correction=                           0.137300 (Hartree/Particle)
 Thermal correction to Energy=                    0.144120
 Thermal correction to Enthalpy=                  0.145064
 Thermal correction to Gibbs Free Energy=         0.106734
 Sum of electronic and zero-point Energies=           -233.485281
 Sum of electronic and thermal Energies=              -233.478461
 Sum of electronic and thermal Enthalpies=            -233.477517
 Sum of electronic and thermal Free Energies=         -233.515848

                     E (Thermal)             CV                S
                      KCal/Mol        Cal/Mol-Kelvin    Cal/Mol-Kelvin
 Total                   90.437             23.237             80.673
 Electronic               0.000              0.000              0.000
 Translational            0.889              2.981             38.823
 Rotational               0.889              2.981             25.677
 Vibrational             88.659             17.275             16.173
 Vibration     1          0.593              1.984              5.851
 Vibration     2          0.628              1.872              2.368
 Vibration     3          0.669              1.744              1.654
 Vibration     4          0.679              1.714              1.545
 Vibration     5          0.708              1.628              1.291
 Vibration     6          0.745              1.526              1.063
 Vibration     7          0.787              1.415              0.875
 Vibration     8          0.911              1.128              0.533

                           ! Non-Optimized Parameters !
 Normal termination of Gaussian 16 at Tue Apr  9 01:52:40 2019.
