 Gaussian 16, Revision A.03,
 Gaussian 16:  EM64L-G16RevA.03 25-Dec-2016

 ----------------------------------------------------------------------
 #p m062x/6-311+g(2df,2p) opt=(calcfc,verytight,gdiis,maxcycles=900) fr
 eq iop(7/33=1,2/16=3)
 ----------------------------------------------------------------------

 ------------------------------
 Gaussian input prepared by ASE
 ------------------------------
 Symbolic Z-matrix:
 Charge =  0 Multiplicity = 1

 SCF Done:  E(RM062X) =  -233.625211465     A.U. after   11 cycles
 SCF Done:  E(RM062X) =  -233.625211464     A.U. after    4 cycles
 Optimization completed.
    -- Stationary point found.
 Normal termination of Gaussian 16 at Mon Mar 11 15:46:20 2019.

 ----------------------------------------------------------------------
 #P Geom=AllCheck Guess=TCheck SCRF=Check Test GenChk RM062X/6-311+G(2d
 f,2p) Freq
 ----------------------------------------------------------------------

 Structure from the checkpoint file:  "/scratch/underkoffler.c/gaussian_scratch/Gau-28789.chk"
 ------------------------------
 Gaussian input prepared by ASE
 ------------------------------
 Charge =  0 Multiplicity = 1

                         Standard orientation:
 ---------------------------------------------------------------------
 Center     Atomic      Atomic             Coordinates (Angstroms)
 Number     Number       Type             X           Y           Z
 ---------------------------------------------------------------------
      1          8           0        0.679189   -0.632878   -0.308859
      2          6           0       -0.421840   -0.009681    0.326539
      3          6           0       -0.582136    1.442899   -0.103089
      4          6           0       -1.642628   -0.835872   -0.026785
      5          6           0        1.933157   -0.126334    0.065638
      6          1           0       -0.259621   -0.045576    1.413327
      7          1           0       -0.676352    1.496255   -1.188627
      8          1           0        0.264083    2.056005    0.203570
      9          1           0       -1.479958    1.868769    0.344313
     10          1           0       -2.528717   -0.444675    0.471753
     11          1           0       -1.497821   -1.872488    0.271743
     12          1           0       -1.807393   -0.807106   -1.104270
     13          1           0        2.114121    0.871999   -0.342354
     14          1           0        2.032077   -0.082180    1.156402
     15          1           0        2.686755   -0.804046   -0.328804
 ---------------------------------------------------------------------

 SCF Done:  E(RM062X) =  -233.625211464     A.U. after    1 cycles

 The electronic state is 1-A.
 Alpha  occ. eigenvalues --  -19.61883 -10.58475 -10.57200 -10.52259 -10.51896
 Alpha  occ. eigenvalues --   -1.15676  -0.88286  -0.78896  -0.76366  -0.66215
 Alpha  occ. eigenvalues --   -0.57209  -0.53943  -0.53432  -0.49720  -0.46117
 Alpha  occ. eigenvalues --   -0.45467  -0.44151  -0.41440  -0.40884  -0.37592
 Alpha  occ. eigenvalues --   -0.32738
 Alpha virt. eigenvalues --    0.01674   0.03002   0.03482   0.03958   0.05589
 Alpha virt. eigenvalues --    0.06606   0.06978   0.07604   0.07801   0.09522
 Alpha virt. eigenvalues --    0.10167   0.11183   0.12179   0.13180   0.13690

 Mulliken charges:
               1
     1  O   -0.126583
     2  C   -0.229518
     3  C   -0.388511
     4  C   -0.421209
     5  C   -0.274206
     6  H    0.161818
     7  H    0.170841
     8  H    0.138243
     9  H    0.142972
    10  H    0.139944
    11  H    0.150348
    12  H    0.158407
    13  H    0.125550
    14  H    0.115843
    15  H    0.136060
 Sum of Mulliken charges =  -0.00000

 Dipole moment (field-independent basis, Debye):
    X=              0.0422    Y=              0.9839    Z=              0.8432  Tot=              1.2965
 Quadrupole moment (field-independent basis, Debye-Ang):
   XX=            -30.8133   YY=            -34.5545   ZZ=            -33.7825
   XY=              0.3859   XZ=              0.2440   YZ=             -0.6260

  Exact polarizability:  61.528   0.359  54.197   0.140  -0.105  49.337
 Approx polarizability:  63.799  -0.230  60.710  -0.286   0.810  61.225

                      1                      2                      3
                      A                      A                      A
 Frequencies --     89.1970               192.2583               222.7906
 Red. masses --      1.8707                 1.0680                 1.1108
 Frc consts  --      0.0088                 0.0233                 0.0325
 IR Inten    --      3.1771                 0.7134                 1.2619

                      4                      5                      6
                      A                      A                      A
 Frequencies --    274.3035               306.7811               372.7032
 Red. masses --      1.2537                 2.3566                 2.0863
 Frc consts  --      0.0556                 0.1307                 0.1708
 IR Inten    --      1.7256                 1.9852                 0.2562

                      7                      8                      9
                      A                      A                      A
 Frequencies --    461.9381               506.4350               825.1378
 Red. masses --      2.6268                 2.4955                 2.4517
 Frc consts  --      0.3302                 0.3771                 0.9835
 IR Inten    --      5.4178                 0.4108                 5.2799

                     10                     11                     12
                      A                      A                      A
 Frequencies --    930.5921               943.1781               954.3454
 Red. masses --      1.1745                 1.8267                 1.6303
 Frc consts  --      0.5993                 0.9574                 0.8748
 IR Inten    --      0.6751                 9.1831                 4.8812

                     13                     14                     15
                      A                      A                      A
 Frequencies --   1136.5669              1153.5718              1179.5301
 Red. masses --      2.1754                 1.7037                 2.0896
 Frc consts  --      1.6557                 1.3358                 1.7129
 IR Inten    --     17.3959                11.1387                29.3982

                     16                     17                     18
                      A                      A                      A
 Frequencies --   1188.0654              1219.4575              1256.0351
 Red. masses --      1.3813                 2.4042                 2.1011
 Frc consts  --      1.1487                 2.1064                 1.9530
 IR Inten    --      7.8201                79.8351                69.8837

                     19                     20                     21
                      A                      A                      A
 Frequencies --   1372.7605              1385.5059              1406.7755
 Red. masses --      1.3076                 1.2076                 1.4438
 Frc consts  --      1.4518                 1.3658                 1.6834
 IR Inten    --      1.7453                17.1293                26.1150

                     22                     23                     24
                      A                      A                      A
 Frequencies --   1419.6963              1481.2236              1486.2037
 Red. masses --      1.3256                 1.1089                 1.0802
 Frc consts  --      1.5741                 1.4335                 1.4057
 IR Inten    --     23.3393                 2.0108                 0.2662

                     25                     26                     27
                      A                      A                      A
 Frequencies --   1489.7835              1497.5909              1504.3180
 Red. masses --      1.0493                 1.0521                 1.0558
 Frc consts  --      1.3722                 1.3902                 1.4077
 IR Inten    --      0.6173                10.8059                 4.0694

                     28                     29                     30
                      A                      A                      A
 Frequencies --   1519.0786              1524.4535              2988.1691
 Red. masses --      1.0739                 1.0469                 1.0827
 Frc consts  --      1.4601                 1.4335                 5.6961
 IR Inten    --     10.3940                 2.3989                38.5987

                     31                     32                     33
                      A                      A                      A
 Frequencies --   3016.9235              3063.3583              3069.5107
 Red. masses --      1.0398                 1.0410                 1.0380
 Frc consts  --      5.5760                 5.7555                 5.7624
 IR Inten    --     52.9182                 5.2053                14.3066

                     34                     35                     36
                      A                      A                      A
 Frequencies --   3073.5575              3136.1202              3142.6088
 Red. masses --      1.0912                 1.1024                 1.1005
 Frc consts  --      6.0733                 6.3879                 6.4034
 IR Inten    --     47.7566                 2.4578                28.1845

                     37                     38                     39
                      A                      A                      A
 Frequencies --   3143.7033              3146.4623              3153.0539
 Red. masses --      1.1016                 1.0985                 1.1029
 Frc consts  --      6.4145                 6.4076                 6.4602
 IR Inten    --     32.7505                18.1384                18.0907

 - Thermochemistry -
 -------------------
 Temperature   298.150 Kelvin.  Pressure   1.00000 Atm.
 Atom     1 has atomic number  8 and mass  15.99491

 Molecular mass:    74.07317 amu.
 Principal axes and moments of inertia in atomic units:
                           1         2         3
     Eigenvalues --   233.49287 468.68840 633.17187
           X            0.99964   0.02503   0.00957
           Y           -0.02488   0.99958  -0.01491
           Z           -0.00994   0.01467   0.99984
 This molecule is an asymmetric top.
 Rotational symmetry number  1.
 Rotational temperatures (Kelvin)      0.37095     0.18480     0.13679
 Rotational constants (GHZ):           7.72932     3.85062     2.85032
 Zero-point vibrational energy     360277.8 (Joules/Mol)
                                   86.10846 (Kcal/Mol)
 Warning -- explicit consideration of   8 degrees of freedom as
           vibrations may cause significant error
 Vibrational temperatures:    128.33   276.62   320.55   394.66   441.39
          (Kelvin)            536.24   664.63   728.65  1187.19  1338.91
                             1357.02  1373.09  1635.27  1659.73  1697.08
                             1709.36  1754.53  1807.15  1975.10  1993.43
                             2024.04  2042.63  2131.15  2138.32  2143.47
                             2154.70  2164.38  2185.62  2193.35  4299.31
                             4340.68  4407.49  4416.34  4422.16  4512.18
                             4521.51  4523.09  4527.06  4536.54

 Zero-point correction=                           0.137223 (Hartree/Particle)
 Thermal correction to Energy=                    0.143965
 Thermal correction to Enthalpy=                  0.144909
 Thermal correction to Gibbs Free Energy=         0.107486
 Sum of electronic and zero-point Energies=           -233.487989
 Sum of electronic and thermal Energies=              -233.481246
 Sum of electronic and thermal Enthalpies=            -233.480302
 Sum of electronic and thermal Free Energies=         -233.517726

                     E (Thermal)             CV                S
                      KCal/Mol        Cal/Mol-Kelvin    Cal/Mol-Kelvin
 Total                   90.339             23.236             78.765
 Electronic               0.000              0.000              0.000
 Translational            0.889              2.981             38.823
 Rotational               0.889              2.981             25.741
 Vibrational             88.562             17.275             14.200
 Vibration     1          0.602              1.957              3.678
 Vibration     2          0.634              1.851              2.206
 Vibration     3          0.648              1.806              1.936
 Vibration     4          0.677              1.721              1.569
 Vibration     5          0.697              1.661              1.380
 Vibration     6          0.744              1.528              1.069
 Vibration     7          0.820              1.334              0.760
 Vibration     8          0.862              1.236              0.642

 Optimization completed.
    -- Stationary point found.
 Normal termination of Gaussian 16 at Mon Mar 11 15:49:52 2019.
