 Gaussian 16, Revision A.03,
 Gaussian 16:  EM64L-G16RevA.03 25-Dec-2016

 ----------------------------------------------
 #p m062x/6-311+g(2df,2p) Opt=(CalcFC,ModRedun)
 ----------------------------------------------

 ----------------------------------------
 Gaussian Input Prepared from Scan Object
 ----------------------------------------
 Symbolic Z-matrix:
 Charge =  0 Multiplicity = 1

 SCF Done:  E(RM062X) =  -233.632587395     A.U. after   11 cycles

  Exact polarizability:   0.000   0.000   0.000   0.000   0.000   0.000
 Approx polarizability:  62.035   0.625  61.679  -0.075   1.320  61.919

 Optimization completed.
    -- Stationary point found.
 SCF Done:  E(RM062X) =  -233.631530525     A.U. after   10 cycles
 SCF Done:  E(RM062X) =  -233.632477295     A.U. after   10 cycles
 SCF Done:  E(RM062X) =  -233.632482680     A.U. after    9 cycles
 Optimization completed.
 SCF Done:  E(RM062X) =  -233.631202665     A.U. after   10 cycles
 SCF Done:  E(RM062X) =  -233.632178232     A.U. after   10 cycles
 SCF Done:  E(RM062X) =  -233.632184727     A.U. after    9 cycles
 SCF Done:  E(RM062X) =  -233.630728376     A.U. after   10 cycles
 SCF Done:  E(RM062X) =  -233.631746185     A.U. after   10 cycles
 SCF Done:  E(RM062X) =  -233.631752739     A.U. after    9 cycles
 SCF Done:  E(RM062X) =  -233.632210031     A.U. after   10 cycles
 SCF Done:  E(RM062X) =  -233.632215044     A.U. after    8 cycles
 SCF Done:  E(RM062X) =  -233.632215109     A.U. after    7 cycles
 SCF Done:  E(RM062X) =  -233.631536435     A.U. after   10 cycles
 SCF Done:  E(RM062X) =  -233.632479312     A.U. after   10 cycles
 SCF Done:  E(RM062X) =  -233.632483514     A.U. after    8 cycles
    -- Stationary point found.
 SCF Done:  E(RM062X) =  -233.631643883     A.U. after   10 cycles
 SCF Done:  E(RM062X) =  -233.632580149     A.U. after   10 cycles
 SCF Done:  E(RM062X) =  -233.632587467     A.U. after    8 cycles
 SCF Done:  E(RM062X) =  -233.632587344     A.U. after    7 cycles
 Optimization completed.
    -- Stationary point found.

                         Standard orientation:
 ---------------------------------------------------------------------
 Center     Atomic      Atomic             Coordinates (Angstroms)
 Number     Number       Type             X           Y           Z
 ---------------------------------------------------------------------
      1          8           0        1.714754   -0.718537   -0.414375
      2          6           0        0.096239    1.064109    0.030066
      3          6           0       -1.085306    0.323502   -0.597457
      4          6           0        1.179408    0.142572    0.573607
      5          6           0       -1.765603   -0.658282    0.352969
      6          1           0       -0.750763   -0.200806   -1.496478
      7          1           0       -1.814716    1.058186   -0.941357
      8          1           0       -0.262087    1.689812    0.852703
      9          1           0        0.542470    1.728901   -0.711740
     10          1           0        0.799620   -0.436465    1.421830
     11          1           0        2.019123    0.732851    0.937700
     12          1           0       -2.067738   -0.159562    1.275389
     13          1           0       -2.655502   -1.092611   -0.100330
     14          1           0       -1.105667   -1.481963    0.630151
     15          1           0        1.028802   -1.321461   -0.707980
 ---------------------------------------------------------------------

 The electronic state is 1-A.
 Alpha  occ. eigenvalues --  -19.61857 -10.57706 -10.53581 -10.53011 -10.52932
 Alpha  occ. eigenvalues --   -1.14304  -0.89847  -0.81579  -0.73756  -0.65801
 Alpha  occ. eigenvalues --   -0.58748  -0.54820  -0.52569  -0.48603  -0.48249
 Alpha  occ. eigenvalues --   -0.46083  -0.41749  -0.40990  -0.39745  -0.38175
 Alpha  occ. eigenvalues --   -0.34509
 Alpha virt. eigenvalues --    0.01012   0.02654   0.02935   0.03661   0.05841
 Alpha virt. eigenvalues --    0.06182   0.06705   0.07014   0.07562   0.10378
 Alpha virt. eigenvalues --    0.10574   0.11489   0.11658   0.12371   0.14625

 Mulliken charges:
               1
     1  O   -0.337093
     2  C   -0.358696
     3  C   -0.323353
     4  C   -0.197127
     5  C   -0.437221
     6  H    0.181539
     7  H    0.155199
     8  H    0.168123
     9  H    0.177191
    10  H    0.151767
    11  H    0.147026
    12  H    0.150701
    13  H    0.143501
    14  H    0.132307
    15  H    0.246137
 Sum of Mulliken charges =  -0.00000

 Dipole moment (field-independent basis, Debye):
    X=             -1.7931    Y=              0.1933    Z=              0.4872  Tot=              1.8681
 Quadrupole moment (field-independent basis, Debye-Ang):
   XX=            -38.0662   YY=            -32.1643   ZZ=            -33.3384
   XY=              1.7624   XZ=              1.8388   YZ=              0.9234

 Normal termination of Gaussian 16 at Mon Mar 11 01:07:12 2019.
