 Gaussian 16, Revision A.03,
 Gaussian 16:  EM64L-G16RevA.03 25-Dec-2016

 ----------------------------------------------
 #p m062x/6-311+g(2df,2p) Opt=(CalcFC,ModRedun)
 ----------------------------------------------

 ----------------------------------------
 Gaussian Input Prepared from Scan Object
 ----------------------------------------
 Symbolic Z-matrix:
 Charge =  0 Multiplicity = 2

 SCF Done:  E(UM062X) =  -307.009082151     A.U. after   15 cycles

  Exact polarizability:   0.000   0.000   0.000   0.000   0.000   0.000
 Approx polarizability:  66.252  -1.587  67.042  -0.149   0.008  53.019

 Optimization completed.
    -- Stationary point found.
 SCF Done:  E(UM062X) =  -306.998284925     A.U. after   13 cycles
 SCF Done:  E(UM062X) =  -307.007071911     A.U. after   13 cycles
 SCF Done:  E(UM062X) =  -307.008369193     A.U. after   12 cycles
 SCF Done:  E(UM062X) =  -307.008398578     A.U. after   11 cycles
 SCF Done:  E(UM062X) =  -307.008399181     A.U. after    8 cycles
 Optimization completed.
 SCF Done:  E(UM062X) =  -306.996073613     A.U. after   14 cycles
 SCF Done:  E(UM062X) =  -307.004894840     A.U. after   13 cycles
 SCF Done:  E(UM062X) =  -307.007184014     A.U. after   13 cycles
 SCF Done:  E(UM062X) =  -307.007248993     A.U. after   11 cycles
 SCF Done:  E(UM062X) =  -306.996476280     A.U. after   14 cycles
 SCF Done:  E(UM062X) =  -307.006720024     A.U. after   14 cycles
 SCF Done:  E(UM062X) =  -307.008384644     A.U. after   13 cycles
 SCF Done:  E(UM062X) =  -307.008421759     A.U. after   10 cycles
 SCF Done:  E(UM062X) =  -307.008424042     A.U. after    9 cycles
    -- Stationary point found.
 SCF Done:  E(UM062X) =  -306.998608383     A.U. after   13 cycles
 SCF Done:  E(UM062X) =  -307.007879047     A.U. after   13 cycles
 SCF Done:  E(UM062X) =  -307.009065791     A.U. after   12 cycles
 SCF Done:  E(UM062X) =  -307.009081701     A.U. after   10 cycles
 SCF Done:  E(UM062X) =  -307.009082150     A.U. after    8 cycles
 Optimization completed.
    -- Stationary point found.

                         Standard orientation:
 ---------------------------------------------------------------------
 Center     Atomic      Atomic             Coordinates (Angstroms)
 Number     Number       Type             X           Y           Z
 ---------------------------------------------------------------------
      1          8           0        1.218822   -0.660201   -0.001389
      2          8           0        0.129199    1.304896   -0.006539
      3          6           0       -1.137491   -0.748212   -0.001242
      4          6           0       -2.410513    0.080299    0.006674
      5          6           0        0.096317    0.110172   -0.003408
      6          6           0        2.426356   -0.035474   -0.025466
      7          1           0       -1.082076   -1.400301   -0.875054
      8          1           0       -1.075823   -1.408193    0.866076
      9          1           0       -3.285404   -0.566582    0.006805
     10          1           0       -2.455154    0.726283   -0.867834
     11          1           0       -2.449459    0.718685    0.887052
     12          1           0        2.453791    1.032400    0.098620
     13          1           0        3.261938   -0.700561    0.088421
 ---------------------------------------------------------------------

 The electronic state is 2-A.
 Alpha  occ. eigenvalues --  -19.69221 -19.62476 -10.67875 -10.59677 -10.55789
 Alpha  occ. eigenvalues --  -10.53325  -1.25839  -1.16358  -0.90252  -0.82593
 Alpha  occ. eigenvalues --   -0.73169  -0.65635  -0.60251  -0.58385  -0.57793
 Alpha  occ. eigenvalues --   -0.52596  -0.51819  -0.45763  -0.44876  -0.43998
 Alpha  occ. eigenvalues --   -0.43851  -0.42125  -0.36831  -0.25610
 Alpha virt. eigenvalues --    0.01170   0.02794   0.03667   0.04035   0.04659
 Alpha virt. eigenvalues --    0.05121   0.05704   0.07630   0.08379   0.09064
 Alpha virt. eigenvalues --    0.09374   0.09517   0.11533   0.12540   0.14170

  Beta  occ. eigenvalues --  -19.69055 -19.62424 -10.67865 -10.58947 -10.55792
  Beta  occ. eigenvalues --  -10.53326  -1.25197  -1.15965  -0.89987  -0.80920
  Beta  occ. eigenvalues --   -0.72243  -0.64257  -0.59986  -0.57330  -0.56963
  Beta  occ. eigenvalues --   -0.52113  -0.50672  -0.45441  -0.44724  -0.43700
  Beta  occ. eigenvalues --   -0.42528  -0.41705  -0.36695
  Beta virt. eigenvalues --   -0.03156   0.01001   0.02656   0.03652   0.04637
  Beta virt. eigenvalues --    0.04901   0.05134   0.05751   0.08079   0.08232
  Beta virt. eigenvalues --    0.08728   0.09634   0.09991   0.12079   0.12613

 Mulliken charges and spin densities:
               1          2
     1  O   -0.097399  -0.021985
     2  O   -0.407646   0.037322
     3  C   -0.111396  -0.007368
     4  C   -0.491962   0.000650
     5  C    0.231475   0.035568
     6  C   -0.253473   1.023816
     7  H    0.159222   0.001784
     8  H    0.158618   0.001491
     9  H    0.134605  -0.000095
    10  H    0.152117   0.000173
    11  H    0.151760   0.000193
    12  H    0.202162  -0.036053
    13  H    0.171917  -0.035496
 Sum of Mulliken charges =  -0.00000   1.00000

 Dipole moment (field-independent basis, Debye):
    X=             -0.3684    Y=             -1.8288    Z=              0.2108  Tot=              1.8775
 Quadrupole moment (field-independent basis, Debye-Ang):
   XX=            -31.7098   YY=            -39.7201   ZZ=            -36.6177
   XY=              1.0942   XZ=              0.6516   YZ=              0.0772

 Normal termination of Gaussian 16 at Fri Mar 29 18:03:57 2019.
