 Gaussian 16, Revision A.03,
 Gaussian 16:  EM64L-G16RevA.03 25-Dec-2016

 ----------------------------------------------
 #p m062x/6-311+g(2df,2p) Opt=(CalcFC,ModRedun)
 ----------------------------------------------

 ----------------------------------------
 Gaussian Input Prepared from Scan Object
 ----------------------------------------
 Symbolic Z-matrix:
 Charge =  0 Multiplicity = 2

 SCF Done:  E(UM062X) =  -307.009082151     A.U. after   15 cycles

  Exact polarizability:   0.000   0.000   0.000   0.000   0.000   0.000
 Approx polarizability:  66.252  -1.587  67.042  -0.149   0.008  53.019

 Optimization completed.
    -- Stationary point found.
 SCF Done:  E(UM062X) =  -307.007654036     A.U. after   11 cycles
 SCF Done:  E(UM062X) =  -307.008817965     A.U. after   11 cycles
 SCF Done:  E(UM062X) =  -307.008837895     A.U. after    9 cycles
 Optimization completed.
 SCF Done:  E(UM062X) =  -307.006926735     A.U. after   11 cycles
 SCF Done:  E(UM062X) =  -307.008136033     A.U. after   12 cycles
 SCF Done:  E(UM062X) =  -307.008163011     A.U. after    9 cycles
 SCF Done:  E(UM062X) =  -307.005889843     A.U. after   11 cycles
 SCF Done:  E(UM062X) =  -307.007187682     A.U. after   12 cycles
 SCF Done:  E(UM062X) =  -307.007226126     A.U. after    9 cycles
 SCF Done:  E(UM062X) =  -307.007236619     A.U. after   10 cycles
 SCF Done:  E(UM062X) =  -307.006844091     A.U. after   12 cycles
 SCF Done:  E(UM062X) =  -307.008146346     A.U. after   11 cycles
 SCF Done:  E(UM062X) =  -307.008166293     A.U. after    9 cycles
 SCF Done:  E(UM062X) =  -307.007605869     A.U. after   12 cycles
 SCF Done:  E(UM062X) =  -307.008824421     A.U. after   11 cycles
 SCF Done:  E(UM062X) =  -307.008837882     A.U. after    9 cycles
    -- Stationary point found.
 SCF Done:  E(UM062X) =  -307.007898969     A.U. after   11 cycles
 SCF Done:  E(UM062X) =  -307.009069100     A.U. after   11 cycles
 SCF Done:  E(UM062X) =  -307.009082074     A.U. after    8 cycles
 Optimization completed.
    -- Stationary point found.

                         Standard orientation:
 ---------------------------------------------------------------------
 Center     Atomic      Atomic             Coordinates (Angstroms)
 Number     Number       Type             X           Y           Z
 ---------------------------------------------------------------------
      1          8           0        1.218920   -0.660165   -0.001388
      2          8           0        0.128762    1.304675   -0.006494
      3          6           0       -1.137479   -0.748518   -0.001178
      4          6           0       -2.410129    0.080493    0.006565
      5          6           0        0.096232    0.109932   -0.003358
      6          6           0        2.426295   -0.035139   -0.025508
      7          1           0       -1.082031   -1.400892   -0.874805
      8          1           0       -1.076309   -1.408287    0.866329
      9          1           0       -3.285503   -0.565742    0.006676
     10          1           0       -2.454158    0.726540   -0.867960
     11          1           0       -2.448510    0.718987    0.886886
     12          1           0        2.453481    1.032737    0.098604
     13          1           0        3.262061   -0.700024    0.088202
 ---------------------------------------------------------------------

 The electronic state is 2-A.
 Alpha  occ. eigenvalues --  -19.69222 -19.62476 -10.67876 -10.59677 -10.55788
 Alpha  occ. eigenvalues --  -10.53323  -1.25839  -1.16359  -0.90253  -0.82593
 Alpha  occ. eigenvalues --   -0.73167  -0.65636  -0.60253  -0.58385  -0.57794
 Alpha  occ. eigenvalues --   -0.52598  -0.51819  -0.45762  -0.44875  -0.43997
 Alpha  occ. eigenvalues --   -0.43850  -0.42124  -0.36832  -0.25610
 Alpha virt. eigenvalues --    0.01171   0.02794   0.03667   0.04034   0.04659
 Alpha virt. eigenvalues --    0.05121   0.05704   0.07631   0.08379   0.09064
 Alpha virt. eigenvalues --    0.09374   0.09517   0.11533   0.12539   0.14169

  Beta  occ. eigenvalues --  -19.69056 -19.62424 -10.67865 -10.58947 -10.55791
  Beta  occ. eigenvalues --  -10.53324  -1.25198  -1.15966  -0.89987  -0.80920
  Beta  occ. eigenvalues --   -0.72242  -0.64257  -0.59989  -0.57330  -0.56965
  Beta  occ. eigenvalues --   -0.52114  -0.50672  -0.45440  -0.44722  -0.43699
  Beta  occ. eigenvalues --   -0.42526  -0.41705  -0.36696
  Beta virt. eigenvalues --   -0.03156   0.01001   0.02656   0.03652   0.04637
  Beta virt. eigenvalues --    0.04900   0.05133   0.05751   0.08079   0.08232
  Beta virt. eigenvalues --    0.08728   0.09633   0.09990   0.12079   0.12613

 Mulliken charges and spin densities:
               1          2
     1  O   -0.097398  -0.021987
     2  O   -0.407639   0.037330
     3  C   -0.111657  -0.007367
     4  C   -0.491880   0.000650
     5  C    0.231602   0.035567
     6  C   -0.253460   1.023812
     7  H    0.159198   0.001784
     8  H    0.158649   0.001493
     9  H    0.134601  -0.000095
    10  H    0.152115   0.000172
    11  H    0.151780   0.000193
    12  H    0.202166  -0.036054
    13  H    0.171923  -0.035498
 Sum of Mulliken charges =  -0.00000   1.00000

 Dipole moment (field-independent basis, Debye):
    X=             -0.3674    Y=             -1.8285    Z=              0.2109  Tot=              1.8769
 Quadrupole moment (field-independent basis, Debye-Ang):
   XX=            -31.7113   YY=            -39.7186   ZZ=            -36.6180
   XY=              1.0962   XZ=              0.6504   YZ=              0.0774

 Normal termination of Gaussian 16 at Tue Apr 23 23:19:26 2019.
