 Gaussian 16, Revision A.03,
 Gaussian 16:  EM64L-G16RevA.03 25-Dec-2016

 ----------------------------------------------
 #p m062x/6-311+g(2df,2p) Opt=(CalcFC,ModRedun)
 ----------------------------------------------

 ----------------------------------------
 Gaussian Input Prepared from Scan Object
 ----------------------------------------
 Symbolic Z-matrix:
 Charge =  0 Multiplicity = 2

 SCF Done:  E(UM062X) =  -307.009082151     A.U. after   15 cycles

  Exact polarizability:   0.000   0.000   0.000   0.000   0.000   0.000
 Approx polarizability:  66.252  -1.587  67.042  -0.149   0.008  53.019

 Optimization completed.
    -- Stationary point found.
 SCF Done:  E(UM062X) =  -307.007778297     A.U. after   12 cycles
 SCF Done:  E(UM062X) =  -307.008822232     A.U. after   12 cycles
 SCF Done:  E(UM062X) =  -307.008839702     A.U. after   10 cycles
 Optimization completed.
 SCF Done:  E(UM062X) =  -307.007054110     A.U. after   11 cycles
 SCF Done:  E(UM062X) =  -307.008149764     A.U. after   12 cycles
 SCF Done:  E(UM062X) =  -307.008173212     A.U. after   10 cycles
 SCF Done:  E(UM062X) =  -307.008173279     A.U. after    8 cycles
 SCF Done:  E(UM062X) =  -307.006017710     A.U. after   11 cycles
 SCF Done:  E(UM062X) =  -307.007213928     A.U. after   12 cycles
 SCF Done:  E(UM062X) =  -307.008140507     A.U. after   11 cycles
 SCF Done:  E(UM062X) =  -307.008159521     A.U. after   10 cycles
 SCF Done:  E(UM062X) =  -307.008159594     A.U. after    7 cycles
 SCF Done:  E(UM062X) =  -307.007703788     A.U. after   12 cycles
 SCF Done:  E(UM062X) =  -307.008822903     A.U. after   11 cycles
 SCF Done:  E(UM062X) =  -307.008837341     A.U. after    9 cycles
    -- Stationary point found.
 SCF Done:  E(UM062X) =  -307.008017472     A.U. after   12 cycles
 SCF Done:  E(UM062X) =  -307.009070412     A.U. after   11 cycles
 SCF Done:  E(UM062X) =  -307.009082116     A.U. after    9 cycles
 SCF Done:  E(UM062X) =  -307.009082151     A.U. after    7 cycles
 Optimization completed.
    -- Stationary point found.

                         Standard orientation:
 ---------------------------------------------------------------------
 Center     Atomic      Atomic             Coordinates (Angstroms)
 Number     Number       Type             X           Y           Z
 ---------------------------------------------------------------------
      1          8           0        1.218838   -0.660194   -0.001422
      2          8           0        0.129167    1.304891   -0.006488
      3          6           0       -1.137478   -0.748229   -0.001130
      4          6           0       -2.410503    0.080302    0.006567
      5          6           0        0.096310    0.110164   -0.003359
      6          6           0        2.426361   -0.035457   -0.025500
      7          1           0       -1.082076   -1.400465   -0.874837
      8          1           0       -1.075897   -1.408091    0.866290
      9          1           0       -3.285416   -0.566545    0.006790
     10          1           0       -2.455065    0.726103   -0.868079
     11          1           0       -2.449493    0.718882    0.886807
     12          1           0        2.453805    1.032408    0.098649
     13          1           0        3.261965   -0.700549    0.088192
 ---------------------------------------------------------------------

 The electronic state is 2-A.
 Alpha  occ. eigenvalues --  -19.69221 -19.62476 -10.67876 -10.59676 -10.55789
 Alpha  occ. eigenvalues --  -10.53325  -1.25839  -1.16358  -0.90252  -0.82593
 Alpha  occ. eigenvalues --   -0.73169  -0.65635  -0.60251  -0.58384  -0.57793
 Alpha  occ. eigenvalues --   -0.52597  -0.51819  -0.45762  -0.44876  -0.43999
 Alpha  occ. eigenvalues --   -0.43851  -0.42125  -0.36831  -0.25609
 Alpha virt. eigenvalues --    0.01170   0.02794   0.03667   0.04035   0.04659
 Alpha virt. eigenvalues --    0.05121   0.05704   0.07630   0.08379   0.09064
 Alpha virt. eigenvalues --    0.09375   0.09517   0.11533   0.12539   0.14170

  Beta  occ. eigenvalues --  -19.69055 -19.62424 -10.67865 -10.58947 -10.55792
  Beta  occ. eigenvalues --  -10.53326  -1.25197  -1.15966  -0.89987  -0.80920
  Beta  occ. eigenvalues --   -0.72243  -0.64257  -0.59987  -0.57329  -0.56964
  Beta  occ. eigenvalues --   -0.52113  -0.50672  -0.45441  -0.44723  -0.43700
  Beta  occ. eigenvalues --   -0.42528  -0.41705  -0.36695
  Beta virt. eigenvalues --   -0.03156   0.01001   0.02656   0.03652   0.04637
  Beta virt. eigenvalues --    0.04901   0.05134   0.05751   0.08079   0.08232
  Beta virt. eigenvalues --    0.08728   0.09634   0.09991   0.12079   0.12613

 Mulliken charges and spin densities:
               1          2
     1  O   -0.097399  -0.021984
     2  O   -0.407638   0.037325
     3  C   -0.111415  -0.007368
     4  C   -0.491959   0.000650
     5  C    0.231481   0.035567
     6  C   -0.253478   1.023818
     7  H    0.159223   0.001784
     8  H    0.158619   0.001491
     9  H    0.134606  -0.000095
    10  H    0.152117   0.000173
    11  H    0.151761   0.000193
    12  H    0.202163  -0.036055
    13  H    0.171920  -0.035499
 Sum of Mulliken charges =  -0.00000   1.00000

 Dipole moment (field-independent basis, Debye):
    X=             -0.3684    Y=             -1.8289    Z=              0.2108  Tot=              1.8775
 Quadrupole moment (field-independent basis, Debye-Ang):
   XX=            -31.7097   YY=            -39.7200   ZZ=            -36.6178
   XY=              1.0944   XZ=              0.6510   YZ=              0.0772

 Normal termination of Gaussian 16 at Mon Mar 11 22:37:58 2019.
