 Gaussian 16, Revision A.03,
 Gaussian 16:  EM64L-G16RevA.03 25-Dec-2016

 ----------------------------------------------
 #p m062x/6-311+g(2df,2p) Opt=(CalcFC,ModRedun)
 ----------------------------------------------

 ----------------------------------------
 Gaussian Input Prepared from Scan Object
 ----------------------------------------
 Symbolic Z-matrix:
 Charge =  0 Multiplicity = 2

 SCF Done:  E(UM062X) =  -307.009082151     A.U. after   15 cycles

  Exact polarizability:   0.000   0.000   0.000   0.000   0.000   0.000
 Approx polarizability:  66.252  -1.587  67.042  -0.149   0.008  53.019

 Optimization completed.
    -- Stationary point found.
 SCF Done:  E(UM062X) =  -307.007845756     A.U. after   11 cycles
 SCF Done:  E(UM062X) =  -307.008970923     A.U. after   12 cycles
 SCF Done:  E(UM062X) =  -307.008984204     A.U. after   10 cycles
 Optimization completed.
 SCF Done:  E(UM062X) =  -307.007561064     A.U. after   12 cycles
 SCF Done:  E(UM062X) =  -307.008695251     A.U. after   12 cycles
 SCF Done:  E(UM062X) =  -307.008707027     A.U. after   10 cycles
 SCF Done:  E(UM062X) =  -307.008707096     A.U. after    8 cycles
 SCF Done:  E(UM062X) =  -307.007122902     A.U. after   12 cycles
 SCF Done:  E(UM062X) =  -307.008297084     A.U. after   12 cycles
 SCF Done:  E(UM062X) =  -307.007514491     A.U. after   12 cycles
 SCF Done:  E(UM062X) =  -307.008695194     A.U. after   12 cycles
 SCF Done:  E(UM062X) =  -307.008710765     A.U. after   10 cycles
 SCF Done:  E(UM062X) =  -307.007824180     A.U. after   11 cycles
 SCF Done:  E(UM062X) =  -307.008972880     A.U. after   12 cycles
 SCF Done:  E(UM062X) =  -307.008983760     A.U. after   10 cycles
 SCF Done:  E(UM062X) =  -307.008983867     A.U. after    8 cycles
    -- Stationary point found.
 SCF Done:  E(UM062X) =  -307.007937310     A.U. after   11 cycles
 SCF Done:  E(UM062X) =  -307.009072129     A.U. after   12 cycles
 SCF Done:  E(UM062X) =  -307.009082125     A.U. after    9 cycles
 Optimization completed.
    -- Stationary point found.

                         Standard orientation:
 ---------------------------------------------------------------------
 Center     Atomic      Atomic             Coordinates (Angstroms)
 Number     Number       Type             X           Y           Z
 ---------------------------------------------------------------------
      1          8           0        1.218838   -0.660180   -0.001480
      2          8           0        0.129023    1.304820   -0.006655
      3          6           0       -1.137429   -0.748377   -0.001216
      4          6           0       -2.410341    0.080372    0.006765
      5          6           0        0.096284    0.110090   -0.003505
      6          6           0        2.426322   -0.035325   -0.025489
      7          1           0       -1.082252   -1.400426   -0.875047
      8          1           0       -1.075784   -1.408165    0.866238
      9          1           0       -3.285388   -0.566297    0.007320
     10          1           0       -2.455134    0.726057   -0.867978
     11          1           0       -2.448877    0.719106    0.886898
     12          1           0        2.453623    1.032436    0.099652
     13          1           0        3.261900   -0.700384    0.088673
 ---------------------------------------------------------------------

 The electronic state is 2-A.
 Alpha  occ. eigenvalues --  -19.69221 -19.62476 -10.67875 -10.59678 -10.55789
 Alpha  occ. eigenvalues --  -10.53324  -1.25839  -1.16358  -0.90252  -0.82593
 Alpha  occ. eigenvalues --   -0.73168  -0.65635  -0.60251  -0.58386  -0.57793
 Alpha  occ. eigenvalues --   -0.52596  -0.51820  -0.45761  -0.44874  -0.43998
 Alpha  occ. eigenvalues --   -0.43850  -0.42127  -0.36831  -0.25613
 Alpha virt. eigenvalues --    0.01170   0.02795   0.03667   0.04034   0.04659
 Alpha virt. eigenvalues --    0.05121   0.05704   0.07630   0.08378   0.09063
 Alpha virt. eigenvalues --    0.09375   0.09517   0.11533   0.12540   0.14170

  Beta  occ. eigenvalues --  -19.69055 -19.62424 -10.67865 -10.58948 -10.55792
  Beta  occ. eigenvalues --  -10.53325  -1.25198  -1.15966  -0.89987  -0.80920
  Beta  occ. eigenvalues --   -0.72243  -0.64257  -0.59987  -0.57331  -0.56964
  Beta  occ. eigenvalues --   -0.52113  -0.50673  -0.45439  -0.44722  -0.43699
  Beta  occ. eigenvalues --   -0.42528  -0.41706  -0.36695
  Beta virt. eigenvalues --   -0.03157   0.01001   0.02656   0.03652   0.04637
  Beta virt. eigenvalues --    0.04901   0.05134   0.05751   0.08078   0.08232
  Beta virt. eigenvalues --    0.08728   0.09634   0.09990   0.12079   0.12613

 Mulliken charges and spin densities:
               1          2
     1  O   -0.097387  -0.021979
     2  O   -0.407613   0.037310
     3  C   -0.111554  -0.007372
     4  C   -0.491923   0.000650
     5  C    0.231510   0.035567
     6  C   -0.253356   1.023773
     7  H    0.159233   0.001784
     8  H    0.158619   0.001490
     9  H    0.134602  -0.000095
    10  H    0.152126   0.000173
    11  H    0.151763   0.000193
    12  H    0.202095  -0.036025
    13  H    0.171885  -0.035469
 Sum of Mulliken charges =  -0.00000   1.00000

 Dipole moment (field-independent basis, Debye):
    X=             -0.3680    Y=             -1.8288    Z=              0.2121  Tot=              1.8774
 Quadrupole moment (field-independent basis, Debye-Ang):
   XX=            -31.7113   YY=            -39.7202   ZZ=            -36.6168
   XY=              1.0944   XZ=              0.6550   YZ=              0.0787

 Normal termination of Gaussian 16 at Tue Mar 12 03:31:24 2019.
