 Gaussian 16, Revision A.03,
 Gaussian 16:  EM64L-G16RevA.03 25-Dec-2016

 ----------------------------------------------
 #p m062x/6-311+g(2df,2p) Opt=(CalcFC,ModRedun)
 ----------------------------------------------

 ----------------------------------------
 Gaussian Input Prepared from Scan Object
 ----------------------------------------
 Symbolic Z-matrix:
 Charge =  0 Multiplicity = 2

 SCF Done:  E(UM062X) =  -307.009082151     A.U. after   15 cycles

  Exact polarizability:   0.000   0.000   0.000   0.000   0.000   0.000
 Approx polarizability:  66.252  -1.587  67.042  -0.149   0.008  53.019

 Optimization completed.
    -- Stationary point found.
 SCF Done:  E(UM062X) =  -307.007497238     A.U. after   14 cycles
 SCF Done:  E(UM062X) =  -307.008303704     A.U. after   13 cycles
 SCF Done:  E(UM062X) =  -307.008489850     A.U. after   12 cycles
 SCF Done:  E(UM062X) =  -307.008509847     A.U. after   12 cycles
 SCF Done:  E(UM062X) =  -307.008552873     A.U. after   11 cycles
 SCF Done:  E(UM062X) =  -307.008554169     A.U. after    9 cycles
 SCF Done:  E(UM062X) =  -307.008554194     A.U. after    7 cycles
 Optimization completed.
 SCF Done:  E(UM062X) =  -307.004765079     A.U. after   14 cycles
 SCF Done:  E(UM062X) =  -307.005399452     A.U. after   13 cycles
 SCF Done:  E(UM062X) =  -307.003965701     A.U. after    9 cycles
 SCF Done:  E(UM062X) =  -307.006925755     A.U. after   14 cycles
 SCF Done:  E(UM062X) =  -307.007360137     A.U. after   13 cycles
 SCF Done:  E(UM062X) =  -307.007473167     A.U. after   12 cycles
 SCF Done:  E(UM062X) =  -307.007478277     A.U. after   10 cycles
    -- Stationary point found.
 SCF Done:  E(UM062X) =  -307.008894980     A.U. after   14 cycles
 SCF Done:  E(UM062X) =  -307.009079988     A.U. after   11 cycles
 SCF Done:  E(UM062X) =  -307.009081782     A.U. after    9 cycles
 SCF Done:  E(UM062X) =  -307.009081992     A.U. after    8 cycles
 SCF Done:  E(UM062X) =  -307.009082136     A.U. after    8 cycles
 Optimization completed.
    -- Stationary point found.

                         Standard orientation:
 ---------------------------------------------------------------------
 Center     Atomic      Atomic             Coordinates (Angstroms)
 Number     Number       Type             X           Y           Z
 ---------------------------------------------------------------------
      1          8           0        1.218809   -0.660203   -0.001565
      2          8           0        0.129204    1.304929   -0.006579
      3          6           0       -1.137490   -0.748188   -0.001202
      4          6           0       -2.410559    0.080267    0.006716
      5          6           0        0.096304    0.110213   -0.003473
      6          6           0        2.426390   -0.035536   -0.025213
      7          1           0       -1.082124   -1.400329   -0.874984
      8          1           0       -1.075804   -1.408146    0.866137
      9          1           0       -3.285439   -0.566626    0.006893
     10          1           0       -2.455239    0.726240   -0.867797
     11          1           0       -2.449501    0.718663    0.887093
     12          1           0        2.454046    1.032371    0.098444
     13          1           0        3.262093   -0.700518    0.088398
 ---------------------------------------------------------------------

 The electronic state is 2-A.
 Alpha  occ. eigenvalues --  -19.69221 -19.62476 -10.67876 -10.59676 -10.55790
 Alpha  occ. eigenvalues --  -10.53325  -1.25838  -1.16358  -0.90252  -0.82593
 Alpha  occ. eigenvalues --   -0.73169  -0.65636  -0.60251  -0.58384  -0.57794
 Alpha  occ. eigenvalues --   -0.52596  -0.51819  -0.45763  -0.44876  -0.43998
 Alpha  occ. eigenvalues --   -0.43852  -0.42125  -0.36831  -0.25608
 Alpha virt. eigenvalues --    0.01170   0.02794   0.03667   0.04035   0.04659
 Alpha virt. eigenvalues --    0.05121   0.05704   0.07630   0.08379   0.09065
 Alpha virt. eigenvalues --    0.09374   0.09517   0.11534   0.12539   0.14170

  Beta  occ. eigenvalues --  -19.69056 -19.62424 -10.67866 -10.58947 -10.55793
  Beta  occ. eigenvalues --  -10.53326  -1.25196  -1.15966  -0.89986  -0.80920
  Beta  occ. eigenvalues --   -0.72243  -0.64257  -0.59986  -0.57329  -0.56965
  Beta  occ. eigenvalues --   -0.52113  -0.50672  -0.45442  -0.44723  -0.43700
  Beta  occ. eigenvalues --   -0.42528  -0.41705  -0.36695
  Beta virt. eigenvalues --   -0.03155   0.01000   0.02656   0.03652   0.04637
  Beta virt. eigenvalues --    0.04901   0.05134   0.05751   0.08079   0.08232
  Beta virt. eigenvalues --    0.08728   0.09634   0.09991   0.12079   0.12613

 Mulliken charges and spin densities:
               1          2
     1  O   -0.097423  -0.021991
     2  O   -0.407637   0.037331
     3  C   -0.111392  -0.007364
     4  C   -0.491967   0.000649
     5  C    0.231493   0.035560
     6  C   -0.253530   1.023862
     7  H    0.159221   0.001783
     8  H    0.158621   0.001493
     9  H    0.134607  -0.000095
    10  H    0.152115   0.000173
    11  H    0.151757   0.000193
    12  H    0.202192  -0.036076
    13  H    0.171944  -0.035519
 Sum of Mulliken charges =  -0.00000   1.00000

 Dipole moment (field-independent basis, Debye):
    X=             -0.3684    Y=             -1.8288    Z=              0.2104  Tot=              1.8773
 Quadrupole moment (field-independent basis, Debye-Ang):
   XX=            -31.7085   YY=            -39.7203   ZZ=            -36.6179
   XY=              1.0947   XZ=              0.6501   YZ=              0.0768

 Normal termination of Gaussian 16 at Fri Mar 29 17:52:55 2019.
