 Gaussian 16, Revision A.03,
 Gaussian 16:  EM64L-G16RevA.03 25-Dec-2016

 ----------------------------------------------------------------------
 #p m062x/6-311+g(2df,2p) opt=(calcfc,verytight,gdiis,maxcycles=900) fr
 eq iop(7/33=1,2/16=3)
 ----------------------------------------------------------------------

 ------------------------------
 Gaussian input prepared by ASE
 ------------------------------
 Symbolic Z-matrix:
 Charge =  0 Multiplicity = 2

 SCF Done:  E(UM062X) =  -306.985518184     A.U. after   16 cycles
 SCF Done:  E(UM062X) =  -307.001567922     A.U. after   14 cycles
 SCF Done:  E(UM062X) =  -307.004957590     A.U. after   13 cycles
 SCF Done:  E(UM062X) =  -307.006089067     A.U. after   12 cycles
 SCF Done:  E(UM062X) =  -307.007113137     A.U. after   13 cycles
 SCF Done:  E(UM062X) =  -307.007396463     A.U. after   12 cycles
 SCF Done:  E(UM062X) =  -307.007404535     A.U. after   10 cycles
 SCF Done:  E(UM062X) =  -307.007406034     A.U. after    9 cycles
 SCF Done:  E(UM062X) =  -307.007406674     A.U. after    8 cycles
 SCF Done:  E(UM062X) =  -307.007407588     A.U. after   10 cycles
 SCF Done:  E(UM062X) =  -307.007426727     A.U. after    3 cycles
 SCF Done:  E(UM062X) =  -307.007426727     A.U. after    3 cycles
 SCF Done:  E(UM062X) =  -307.007426727     A.U. after    3 cycles
 SCF Done:  E(UM062X) =  -307.007426727     A.U. after    2 cycles
 SCF Done:  E(UM062X) =  -307.007426726     A.U. after    4 cycles
 SCF Done:  E(UM062X) =  -307.007426727     A.U. after    4 cycles
 SCF Done:  E(UM062X) =  -307.007426727     A.U. after    3 cycles
 SCF Done:  E(UM062X) =  -307.007426727     A.U. after    3 cycles
 SCF Done:  E(UM062X) =  -307.007426727     A.U. after    2 cycles
 Optimization completed.
    -- Stationary point found.
 Normal termination of Gaussian 16 at Tue Apr  9 02:35:44 2019.

 ----------------------------------------------------------------------
 #P Geom=AllCheck Guess=TCheck SCRF=Check Test GenChk UM062X/6-311+G(2d
 f,2p) Freq
 ----------------------------------------------------------------------

 Structure from the checkpoint file:  "/scratch/underkoffler.c/gaussian_scratch/Gau-26614.chk"
 ------------------------------
 Gaussian input prepared by ASE
 ------------------------------
 Charge =  0 Multiplicity = 2

                         Standard orientation:
 ---------------------------------------------------------------------
 Center     Atomic      Atomic             Coordinates (Angstroms)
 Number     Number       Type             X           Y           Z
 ---------------------------------------------------------------------
      1          8           0        0.826617   -0.678390    0.261997
      2          8           0        0.592827    1.485867   -0.293588
      3          6           0       -1.316410    0.266258    0.537708
      4          6           0       -2.050328   -0.653205   -0.441864
      5          6           0        0.112396    0.474179    0.124401
      6          6           0        2.140795   -0.665091   -0.084370
      7          1           0       -1.325450   -0.171473    1.536268
      8          1           0       -1.783549    1.246651    0.580181
      9          1           0       -3.086833   -0.777632   -0.135053
     10          1           0       -1.581645   -1.634658   -0.475303
     11          1           0       -2.041536   -0.232230   -1.446359
     12          1           0        2.611997   -1.629314   -0.044034
     13          1           0        2.532744    0.205990   -0.578227
 ---------------------------------------------------------------------

 SCF Done:  E(UM062X) =  -307.007426727     A.U. after    1 cycles

 The electronic state is 2-A.
 Alpha  occ. eigenvalues --  -19.69276 -19.62379 -10.67821 -10.59698 -10.55721
 Alpha  occ. eigenvalues --  -10.54230  -1.25817  -1.16253  -0.90597  -0.82011
 Alpha  occ. eigenvalues --   -0.74107  -0.66001  -0.60100  -0.58356  -0.56953
 Alpha  occ. eigenvalues --   -0.52685  -0.51461  -0.47571  -0.45461  -0.44472
 Alpha  occ. eigenvalues --   -0.42919  -0.42629  -0.36353  -0.25600
 Alpha virt. eigenvalues --    0.01065   0.02735   0.03206   0.04086   0.04626
 Alpha virt. eigenvalues --    0.05213   0.06287   0.07335   0.08034   0.08201
 Alpha virt. eigenvalues --    0.09939   0.10682   0.11341   0.12764   0.12927

  Beta  occ. eigenvalues --  -19.69117 -19.62324 -10.67810 -10.58971 -10.55724
  Beta  occ. eigenvalues --  -10.54225  -1.25177  -1.15863  -0.90307  -0.80227
  Beta  occ. eigenvalues --   -0.73473  -0.64463  -0.59589  -0.57881  -0.55429
  Beta  occ. eigenvalues --   -0.52288  -0.50971  -0.46932  -0.44792  -0.44104
  Beta  occ. eigenvalues --   -0.42857  -0.41498  -0.36219
  Beta virt. eigenvalues --   -0.03221   0.01074   0.02471   0.03294   0.04124
  Beta virt. eigenvalues --    0.05104   0.05455   0.06294   0.07891   0.08248
  Beta virt. eigenvalues --    0.08516   0.09365   0.10704   0.12179   0.12664

 Mulliken charges and spin densities:
               1          2
     1  O   -0.089004  -0.023226
     2  O   -0.386856   0.039586
     3  C   -0.369010  -0.007245
     4  C   -0.389185   0.005898
     5  C    0.323549   0.032310
     6  C   -0.258394   1.025146
     7  H    0.175888   0.000958
     8  H    0.170284  -0.000257
     9  H    0.139720   0.000605
    10  H    0.153521  -0.000724
    11  H    0.152251  -0.000648
    12  H    0.172041  -0.035801
    13  H    0.205196  -0.036600
 Sum of Mulliken charges =  -0.00000   1.00000

 Dipole moment (field-independent basis, Debye):
    X=             -1.1394    Y=             -1.7725    Z=              0.3947  Tot=              2.1437
 Quadrupole moment (field-independent basis, Debye-Ang):
   XX=            -32.3056   YY=            -40.1514   ZZ=            -36.6763
   XY=             -2.5438   XZ=             -1.1471   YZ=              1.2021

  Exact polarizability:  66.734  -2.720  55.133  -1.131  -0.521  45.606
 Approx polarizability:  65.175  -1.076  66.897  -1.910  -3.221  54.857

                      1                      2                      3
                      A                      A                      A
 Frequencies --     36.5104               139.3529               218.6662
 Red. masses --      2.9139                 2.7744                 1.1360
 Frc consts  --      0.0023                 0.0317                 0.0320
 IR Inten    --      0.7033                 2.4004                 0.2214

                      4                      5                      6
                      A                      A                      A
 Frequencies --    243.4454               293.3472               298.3222
 Red. masses --      1.8188                 1.2239                 1.6744
 Frc consts  --      0.0635                 0.0621                 0.0878
 IR Inten    --      8.1592                59.1621                 2.7900

                      7                      8                      9
                      A                      A                      A
 Frequencies --    340.1752               450.3372               628.2436
 Red. masses --      3.0542                 3.1527                 4.1990
 Frc consts  --      0.2082                 0.3767                 0.9765
 IR Inten    --      6.4428                 5.7799                 6.1339

                     10                     11                     12
                      A                      A                      A
 Frequencies --    743.6165               802.2312               851.7284
 Red. masses --      3.1418                 1.4631                 2.7259
 Frc consts  --      1.0236                 0.5548                 1.1651
 IR Inten    --      4.6676                 2.9728                19.3259

                     13                     14                     15
                      A                      A                      A
 Frequencies --    986.0482              1072.8577              1102.9673
 Red. masses --      1.8860                 2.1691                 1.7607
 Frc consts  --      1.0804                 1.4710                 1.2620
 IR Inten    --     33.7485                27.2509                 4.7186

                     16                     17                     18
                      A                      A                      A
 Frequencies --   1197.8274              1212.6561              1264.3429
 Red. masses --      1.8872                 2.2331                 2.2479
 Frc consts  --      1.5954                 1.9348                 2.1171
 IR Inten    --     29.6148                 4.7746               204.9570

                     19                     20                     21
                      A                      A                      A
 Frequencies --   1313.1273              1360.0339              1416.0603
 Red. masses --      1.5986                 1.7669                 1.2256
 Frc consts  --      1.6241                 1.9256                 1.4480
 IR Inten    --    162.2809                54.2716                 5.3934

                     22                     23                     24
                      A                      A                      A
 Frequencies --   1461.6244              1485.3187              1506.9901
 Red. masses --      1.1684                 1.0849                 1.0376
 Frc consts  --      1.4706                 1.4102                 1.3883
 IR Inten    --      3.8264                 5.3123                 7.9229

                     25                     26                     27
                      A                      A                      A
 Frequencies --   1514.9364              1865.2332              3075.9224
 Red. masses --      1.0704                11.5478                 1.0357
 Frc consts  --      1.4474                23.6709                 5.7733
 IR Inten    --     14.6803               299.5046                13.8063

                     28                     29                     30
                      A                      A                      A
 Frequencies --   3091.5274              3143.6930              3152.5591
 Red. masses --      1.0624                 1.1012                 1.1038
 Frc consts  --      5.9826                 6.4121                 6.4636
 IR Inten    --      7.9609                 5.0546                10.8223

                     31                     32                     33
                      A                      A                      A
 Frequencies --   3165.6729              3209.4064              3360.9548
 Red. masses --      1.1028                 1.0424                 1.1299
 Frc consts  --      6.5114                 6.3261                 7.5197
 IR Inten    --     14.6105                 7.5152                 0.4397

 - Thermochemistry -
 -------------------
 Temperature   298.150 Kelvin.  Pressure   1.00000 Atm.
 Atom     1 has atomic number  8 and mass  15.99491

 Molecular mass:    87.04460 amu.
 Principal axes and moments of inertia in atomic units:
                           1         2         3
     Eigenvalues --   279.21407 682.96696 862.81120
           X            1.00000  -0.00082  -0.00305
           Y            0.00092   0.99947   0.03246
           Z            0.00302  -0.03246   0.99947
 This molecule is an asymmetric top.
 Rotational symmetry number  1.
 Rotational temperatures (Kelvin)      0.31021     0.12682     0.10039
 Rotational constants (GHZ):           6.46365     2.64250     2.09170
 Zero-point vibrational energy     275175.4 (Joules/Mol)
                                   65.76850 (Kcal/Mol)
 Warning -- explicit consideration of   8 degrees of freedom as
           vibrations may cause significant error
 Vibrational temperatures:     52.53   200.50   314.61   350.26   422.06
          (Kelvin)            429.22   489.44   647.93   903.90  1069.90
                             1154.23  1225.45  1418.70  1543.60  1586.92
                             1723.41  1744.74  1819.11  1889.30  1956.79
                             2037.39  2102.95  2137.04  2168.22  2179.66
                             2683.65  4425.57  4448.02  4523.07  4535.83
                             4554.70  4617.62  4835.66

 Zero-point correction=                           0.104809 (Hartree/Particle)
 Thermal correction to Energy=                    0.112250
 Thermal correction to Enthalpy=                  0.113194
 Thermal correction to Gibbs Free Energy=         0.072492
 Sum of electronic and zero-point Energies=           -306.902618
 Sum of electronic and thermal Energies=              -306.895177
 Sum of electronic and thermal Enthalpies=            -306.894233
 Sum of electronic and thermal Free Energies=         -306.934934

                     E (Thermal)             CV                S
                      KCal/Mol        Cal/Mol-Kelvin    Cal/Mol-Kelvin
 Total                   70.438             24.935             85.664
 Electronic               0.000              0.000              1.377
 Translational            0.889              2.981             39.304
 Rotational               0.889              2.981             26.600
 Vibrational             68.660             18.974             18.382
 Vibration     1          0.594              1.982              5.440
 Vibration     2          0.615              1.914              2.813
 Vibration     3          0.646              1.813              1.970
 Vibration     4          0.659              1.774              1.778
 Vibration     5          0.688              1.686              1.455
 Vibration     6          0.691              1.677              1.426
 Vibration     7          0.720              1.595              1.211
 Vibration     8          0.809              1.360              0.795

                           ! Non-Optimized Parameters !
 Normal termination of Gaussian 16 at Tue Apr  9 02:41:34 2019.
