 Gaussian 16, Revision A.03,
 Gaussian 16:  EM64L-G16RevA.03 25-Dec-2016

 ----------------------------------------------------------------------
 #p m062x/6-311+g(2df,2p) opt=(calcfc,verytight,gdiis,maxcycles=900) fr
 eq iop(7/33=1,2/16=3)
 ----------------------------------------------------------------------

 ------------------------------
 Gaussian input prepared by ASE
 ------------------------------
 Symbolic Z-matrix:
 Charge =  0 Multiplicity = 2

 SCF Done:  E(UM062X) =  -307.009081506     A.U. after   15 cycles
 SCF Done:  E(UM062X) =  -307.009082132     A.U. after    9 cycles
 SCF Done:  E(UM062X) =  -307.009082152     A.U. after    7 cycles
 SCF Done:  E(UM062X) =  -307.009082151     A.U. after    6 cycles
 SCF Done:  E(UM062X) =  -307.009082151     A.U. after    2 cycles
 SCF Done:  E(UM062X) =  -307.009082151     A.U. after    2 cycles
 SCF Done:  E(UM062X) =  -307.009082151     A.U. after    2 cycles
 Optimization completed.
    -- Stationary point found.
 Normal termination of Gaussian 16 at Mon Mar 11 15:53:19 2019.

 ----------------------------------------------------------------------
 #P Geom=AllCheck Guess=TCheck SCRF=Check Test GenChk UM062X/6-311+G(2d
 f,2p) Freq
 ----------------------------------------------------------------------

 Structure from the checkpoint file:  "/scratch/underkoffler.c/gaussian_scratch/Gau-20673.chk"
 ------------------------------
 Gaussian input prepared by ASE
 ------------------------------
 Charge =  0 Multiplicity = 2

                         Standard orientation:
 ---------------------------------------------------------------------
 Center     Atomic      Atomic             Coordinates (Angstroms)
 Number     Number       Type             X           Y           Z
 ---------------------------------------------------------------------
      1          8           0        1.218825   -0.660198   -0.001400
      2          8           0        0.129217    1.304916   -0.006538
      3          6           0       -1.137484   -0.748193   -0.001212
      4          6           0       -2.410545    0.080277    0.006645
      5          6           0        0.096318    0.110192   -0.003386
      6          6           0        2.426366   -0.035497   -0.025458
      7          1           0       -1.082077   -1.400310   -0.875010
      8          1           0       -1.075848   -1.408169    0.866116
      9          1           0       -3.285432   -0.566606    0.006833
     10          1           0       -2.455201    0.726207   -0.867901
     11          1           0       -2.449496    0.718713    0.886992
     12          1           0        2.453841    1.032368    0.098687
     13          1           0        3.261949   -0.700613    0.088258
 ---------------------------------------------------------------------

 SCF Done:  E(UM062X) =  -307.009082151     A.U. after    1 cycles

 The electronic state is 2-A.
 Alpha  occ. eigenvalues --  -19.69221 -19.62476 -10.67876 -10.59676 -10.55790
 Alpha  occ. eigenvalues --  -10.53325  -1.25839  -1.16358  -0.90252  -0.82593
 Alpha  occ. eigenvalues --   -0.73169  -0.65635  -0.60251  -0.58384  -0.57793
 Alpha  occ. eigenvalues --   -0.52597  -0.51819  -0.45763  -0.44876  -0.43999
 Alpha  occ. eigenvalues --   -0.43851  -0.42125  -0.36831  -0.25609
 Alpha virt. eigenvalues --    0.01170   0.02794   0.03667   0.04035   0.04659
 Alpha virt. eigenvalues --    0.05121   0.05704   0.07630   0.08379   0.09064
 Alpha virt. eigenvalues --    0.09375   0.09517   0.11533   0.12539   0.14170

  Beta  occ. eigenvalues --  -19.69055 -19.62424 -10.67865 -10.58947 -10.55793
  Beta  occ. eigenvalues --  -10.53326  -1.25197  -1.15966  -0.89987  -0.80920
  Beta  occ. eigenvalues --   -0.72243  -0.64257  -0.59987  -0.57329  -0.56964
  Beta  occ. eigenvalues --   -0.52113  -0.50672  -0.45442  -0.44723  -0.43700
  Beta  occ. eigenvalues --   -0.42528  -0.41705  -0.36695
  Beta virt. eigenvalues --   -0.03156   0.01000   0.02656   0.03652   0.04637
  Beta virt. eigenvalues --    0.04901   0.05134   0.05751   0.08079   0.08232
  Beta virt. eigenvalues --    0.08728   0.09634   0.09991   0.12079   0.12613

 Mulliken charges and spin densities:
               1          2
     1  O   -0.097401  -0.021984
     2  O   -0.407640   0.037324
     3  C   -0.111391  -0.007368
     4  C   -0.491962   0.000650
     5  C    0.231473   0.035567
     6  C   -0.253480   1.023819
     7  H    0.159222   0.001784
     8  H    0.158618   0.001491
     9  H    0.134608  -0.000095
    10  H    0.152116   0.000173
    11  H    0.151757   0.000193
    12  H    0.202163  -0.036056
    13  H    0.171921  -0.035499
 Sum of Mulliken charges =  -0.00000   1.00000

 Dipole moment (field-independent basis, Debye):
    X=             -0.3685    Y=             -1.8289    Z=              0.2108  Tot=              1.8775
 Quadrupole moment (field-independent basis, Debye-Ang):
   XX=            -31.7095   YY=            -39.7202   ZZ=            -36.6178
   XY=              1.0942   XZ=              0.6512   YZ=              0.0774

  Exact polarizability:  71.108  -1.064  52.838  -0.206   0.002  43.241
 Approx polarizability:  66.252  -1.587  67.042  -0.149   0.008  53.019

                      1                      2                      3
                      A                      A                      A
 Frequencies --     58.6315               144.3134               219.0167
 Red. masses --      2.2679                 2.0288                 3.1086
 Frc consts  --      0.0046                 0.0249                 0.0879
 IR Inten    --      0.0339                 6.7975                 1.7587

                      4                      5                      6
                      A                      A                      A
 Frequencies --    219.3984               270.0331               309.1556
 Red. masses --      1.1130                 1.4312                 1.2311
 Frc consts  --      0.0316                 0.0615                 0.0693
 IR Inten    --      3.0870                 3.0767                56.9154

                      7                      8                      9
                      A                      A                      A
 Frequencies --    362.5461               463.0695               579.8903
 Red. masses --      4.1151                 4.3530                 2.1916
 Frc consts  --      0.3187                 0.5500                 0.4342
 IR Inten    --     16.3884                 0.3879                 2.2859

                     10                     11                     12
                      A                      A                      A
 Frequencies --    663.9363               814.7633               860.3875
 Red. masses --      3.7941                 1.4247                 2.9952
 Frc consts  --      0.9854                 0.5572                 1.3064
 IR Inten    --      3.5178                10.0524                15.3440

                     13                     14                     15
                      A                      A                      A
 Frequencies --   1016.9626              1092.1452              1113.4522
 Red. masses --      1.8555                 2.4891                 1.7078
 Frc consts  --      1.1306                 1.7492                 1.2475
 IR Inten    --      4.4144                23.0623                 0.4858

                     16                     17                     18
                      A                      A                      A
 Frequencies --   1160.6765              1200.4054              1272.6130
 Red. masses --      2.6371                 1.6620                 4.8900
 Frc consts  --      2.0932                 1.4110                 4.6661
 IR Inten    --     58.7865                33.4380               384.1526

                     19                     20                     21
                      A                      A                      A
 Frequencies --   1285.0385              1393.3672              1426.2132
 Red. masses --      1.1764                 1.8649                 1.2791
 Frc consts  --      1.1446                 2.1332                 1.5329
 IR Inten    --      0.2796                80.1150                 2.6835

                     22                     23                     24
                      A                      A                      A
 Frequencies --   1462.6725              1467.7030              1500.2846
 Red. masses --      1.1927                 1.0840                 1.0354
 Frc consts  --      1.5034                 1.3758                 1.3732
 IR Inten    --      4.4411                16.6690                 7.8130

                     25                     26                     27
                      A                      A                      A
 Frequencies --   1507.9287              1865.1071              3075.4144
 Red. masses --      1.0604                11.6731                 1.0611
 Frc consts  --      1.4206                23.9247                 5.9129
 IR Inten    --     13.2563               259.1212                 5.1700

                     28                     29                     30
                      A                      A                      A
 Frequencies --   3082.6066              3107.4270              3156.5424
 Red. masses --      1.0355                 1.1009                 1.1033
 Frc consts  --      5.7973                 6.2632                 6.4766
 IR Inten    --     18.1775                 1.4262                12.9767

                     31                     32                     33
                      A                      A                      A
 Frequencies --   3157.2306              3208.7048              3360.1808
 Red. masses --      1.1029                 1.0426                 1.1296
 Frc consts  --      6.4775                 6.3247                 7.5142
 IR Inten    --     12.7205                 8.1461                 0.3531

 - Thermochemistry -
 -------------------
 Temperature   298.150 Kelvin.  Pressure   1.00000 Atm.
 Atom     1 has atomic number  8 and mass  15.99491

 Molecular mass:    87.04460 amu.
 Principal axes and moments of inertia in atomic units:
                           1         2         3
     Eigenvalues --   182.63530 803.70713 964.16546
           X            0.99995   0.00956   0.00214
           Y           -0.00957   0.99995   0.00108
           Z           -0.00213  -0.00110   1.00000
 This molecule is an asymmetric top.
 Rotational symmetry number  1.
 Rotational temperatures (Kelvin)      0.47425     0.10777     0.08983
 Rotational constants (GHZ):           9.88167     2.24552     1.87182
 Zero-point vibrational energy     274410.3 (Joules/Mol)
                                   65.58563 (Kcal/Mol)
 Warning -- explicit consideration of   9 degrees of freedom as
           vibrations may cause significant error
 Vibrational temperatures:     84.36   207.63   315.12   315.67   388.52
          (Kelvin)            444.81   521.62   666.25   834.33   955.26
                             1172.26  1237.91  1463.18  1571.35  1602.01
                             1669.95  1727.12  1831.01  1848.88  2004.74
                             2052.00  2104.46  2111.70  2158.57  2169.57
                             2683.47  4424.84  4435.18  4470.89  4541.56
                             4542.55  4616.61  4834.55

 Zero-point correction=                           0.104517 (Hartree/Particle)
 Thermal correction to Energy=                    0.111968
 Thermal correction to Enthalpy=                  0.112912
 Thermal correction to Gibbs Free Energy=         0.072627
 Sum of electronic and zero-point Energies=           -306.904565
 Sum of electronic and thermal Energies=              -306.897114
 Sum of electronic and thermal Enthalpies=            -306.896170
 Sum of electronic and thermal Free Energies=         -306.936455

                     E (Thermal)             CV                S
                      KCal/Mol        Cal/Mol-Kelvin    Cal/Mol-Kelvin
 Total                   70.261             25.103             84.788
 Electronic               0.000              0.000              1.377
 Translational            0.889              2.981             39.304
 Rotational               0.889              2.981             26.451
 Vibrational             68.484             19.141             17.655
 Vibration     1          0.596              1.974              4.503
 Vibration     2          0.616              1.909              2.746
 Vibration     3          0.647              1.812              1.967
 Vibration     4          0.647              1.812              1.964
 Vibration     5          0.674              1.728              1.596
 Vibration     6          0.699              1.656              1.367
 Vibration     7          0.736              1.549              1.111
 Vibration     8          0.821              1.332              0.757
 Vibration     9          0.937              1.075              0.486

                           ! Non-Optimized Parameters !
 Normal termination of Gaussian 16 at Mon Mar 11 15:58:36 2019.
