 Gaussian 16, Revision A.03,
 Gaussian 16:  EM64L-G16RevA.03 25-Dec-2016

 ----------------------------------------------------------------------
 #p m062x/6-311+g(2df,2p) opt=(calcfc,verytight,gdiis,maxcycles=900) fr
 eq iop(7/33=1,2/16=3)
 ----------------------------------------------------------------------

 ------------------------------
 Gaussian input prepared by ASE
 ------------------------------
 Symbolic Z-matrix:
 Charge =  0 Multiplicity = 2

 SCF Done:  E(UM062X) =  -306.983943912     A.U. after   16 cycles
 SCF Done:  E(UM062X) =  -307.000346927     A.U. after   14 cycles
 SCF Done:  E(UM062X) =  -307.002449871     A.U. after   14 cycles
 SCF Done:  E(UM062X) =  -307.003282628     A.U. after   12 cycles
 SCF Done:  E(UM062X) =  -307.004419767     A.U. after   13 cycles
 SCF Done:  E(UM062X) =  -307.006404650     A.U. after   13 cycles
 SCF Done:  E(UM062X) =  -307.006568162     A.U. after   13 cycles
 SCF Done:  E(UM062X) =  -307.007253323     A.U. after   13 cycles
 SCF Done:  E(UM062X) =  -307.007327673     A.U. after   11 cycles
 SCF Done:  E(UM062X) =  -307.007361094     A.U. after   11 cycles
 SCF Done:  E(UM062X) =  -307.007444145     A.U. after    7 cycles
 SCF Done:  E(UM062X) =  -307.007444140     A.U. after    7 cycles
 SCF Done:  E(UM062X) =  -307.007444139     A.U. after    7 cycles
 SCF Done:  E(UM062X) =  -307.007444140     A.U. after    5 cycles
 SCF Done:  E(UM062X) =  -307.007444140     A.U. after    5 cycles
 SCF Done:  E(UM062X) =  -307.007444140     A.U. after    3 cycles
 SCF Done:  E(UM062X) =  -307.007444140     A.U. after    4 cycles
 SCF Done:  E(UM062X) =  -307.007444140     A.U. after    3 cycles
 SCF Done:  E(UM062X) =  -307.007444140     A.U. after    2 cycles
 Optimization completed.
    -- Stationary point found.
 Normal termination of Gaussian 16 at Tue Apr  9 02:33:50 2019.

 ----------------------------------------------------------------------
 #P Geom=AllCheck Guess=TCheck SCRF=Check Test GenChk UM062X/6-311+G(2d
 f,2p) Freq
 ----------------------------------------------------------------------

 Structure from the checkpoint file:  "/scratch/underkoffler.c/gaussian_scratch/Gau-38825.chk"
 ------------------------------
 Gaussian input prepared by ASE
 ------------------------------
 Charge =  0 Multiplicity = 2

                         Standard orientation:
 ---------------------------------------------------------------------
 Center     Atomic      Atomic             Coordinates (Angstroms)
 Number     Number       Type             X           Y           Z
 ---------------------------------------------------------------------
      1          8           0       -0.833325   -0.680007   -0.255993
      2          8           0       -0.581205    1.483966    0.293367
      3          6           0        1.312839    0.250773   -0.551994
      4          6           0        2.054588   -0.641803    0.446784
      5          6           0       -0.111060    0.468682   -0.127542
      6          6           0       -2.132834   -0.670139    0.142384
      7          1           0        1.313142   -0.214251   -1.537994
      8          1           0        1.779926    1.229458   -0.624223
      9          1           0        2.055815   -0.191957    1.438664
     10          1           0        3.087819   -0.777397    0.133786
     11          1           0        1.584054   -1.620768    0.512867
     12          1           0       -2.666580   -1.572210   -0.092043
     13          1           0       -2.579130    0.270382    0.412164
 ---------------------------------------------------------------------

 SCF Done:  E(UM062X) =  -307.007444140     A.U. after    1 cycles

 The electronic state is 2-A.
 Alpha  occ. eigenvalues --  -19.69272 -19.62379 -10.67819 -10.59702 -10.55712
 Alpha  occ. eigenvalues --  -10.54209  -1.25811  -1.16253  -0.90587  -0.82014
 Alpha  occ. eigenvalues --   -0.74079  -0.65974  -0.60022  -0.58519  -0.56909
 Alpha  occ. eigenvalues --   -0.52720  -0.51380  -0.47464  -0.45545  -0.44423
 Alpha  occ. eigenvalues --   -0.42918  -0.42627  -0.36354  -0.25628
 Alpha virt. eigenvalues --    0.01088   0.02728   0.03229   0.04144   0.04674
 Alpha virt. eigenvalues --    0.05219   0.06263   0.07369   0.08085   0.08209
 Alpha virt. eigenvalues --    0.09762   0.10706   0.11336   0.12805   0.12985

  Beta  occ. eigenvalues --  -19.69112 -19.62324 -10.67808 -10.58974 -10.55716
  Beta  occ. eigenvalues --  -10.54204  -1.25170  -1.15863  -0.90298  -0.80224
  Beta  occ. eigenvalues --   -0.73451  -0.64437  -0.59548  -0.57936  -0.55431
  Beta  occ. eigenvalues --   -0.52391  -0.50868  -0.46804  -0.44831  -0.44085
  Beta  occ. eigenvalues --   -0.42856  -0.41495  -0.36220
  Beta virt. eigenvalues --   -0.03239   0.01032   0.02503   0.03335   0.04170
  Beta virt. eigenvalues --    0.05091   0.05422   0.06309   0.07873   0.08266
  Beta virt. eigenvalues --    0.08671   0.09195   0.10719   0.12148   0.12598

 Mulliken charges and spin densities:
               1          2
     1  O   -0.089884  -0.022940
     2  O   -0.387029   0.039624
     3  C   -0.365915  -0.006259
     4  C   -0.390173   0.006185
     5  C    0.323763   0.031088
     6  C   -0.257168   1.023923
     7  H    0.174732   0.000745
     8  H    0.169536  -0.000246
     9  H    0.152837  -0.000610
    10  H    0.139194   0.000592
    11  H    0.153500  -0.000393
    12  H    0.172292  -0.035540
    13  H    0.204315  -0.036169
 Sum of Mulliken charges =  -0.00000   1.00000

 Dipole moment (field-independent basis, Debye):
    X=              1.0224    Y=             -1.6689    Z=             -0.7604  Tot=              2.0997
 Quadrupole moment (field-independent basis, Debye-Ang):
   XX=            -31.6847   YY=            -40.3084   ZZ=            -36.8950
   XY=              2.2328   XZ=             -0.1511   YZ=             -0.9281

  Exact polarizability:  66.590   2.714  55.078  -1.510   0.349  45.697
 Approx polarizability:  65.039   1.124  66.994  -2.183   3.011  54.885

                      1                      2                      3
                      A                      A                      A
 Frequencies --     30.6046               132.6202               217.6856
 Red. masses --      2.8708                 2.6104                 1.1284
 Frc consts  --      0.0016                 0.0271                 0.0315
 IR Inten    --      0.5315                 3.0869                 0.2232

                      4                      5                      6
                      A                      A                      A
 Frequencies --    236.7907               291.6110               311.2158
 Red. masses --      1.6175                 1.8033                 1.3461
 Frc consts  --      0.0534                 0.0903                 0.0768
 IR Inten    --      8.5549                 1.9906                57.0395

                      7                      8                      9
                      A                      A                      A
 Frequencies --    338.5024               450.4704               629.7038
 Red. masses --      2.9121                 3.1680                 4.1905
 Frc consts  --      0.1966                 0.3788                 0.9790
 IR Inten    --      6.9833                 5.4804                 6.2142

                     10                     11                     12
                      A                      A                      A
 Frequencies --    744.6307               801.0031               851.9596
 Red. masses --      3.2131                 1.4519                 2.6945
 Frc consts  --      1.0497                 0.5489                 1.1523
 IR Inten    --      4.8618                 2.7208                19.5852

                     13                     14                     15
                      A                      A                      A
 Frequencies --    985.6128              1071.9476              1102.5668
 Red. masses --      1.9014                 2.1693                 1.7584
 Frc consts  --      1.0883                 1.4686                 1.2594
 IR Inten    --     33.1594                28.2558                 5.0178

                     16                     17                     18
                      A                      A                      A
 Frequencies --   1197.5663              1211.8360              1263.6524
 Red. masses --      1.8915                 2.2275                 2.2319
 Frc consts  --      1.5983                 1.9274                 2.0998
 IR Inten    --     30.3000                 5.1022               201.4505

                     19                     20                     21
                      A                      A                      A
 Frequencies --   1312.4301              1359.3235              1415.3860
 Red. masses --      1.5940                 1.7767                 1.2250
 Frc consts  --      1.6177                 1.9342                 1.4459
 IR Inten    --    160.3518                58.2340                 5.1716

                     22                     23                     24
                      A                      A                      A
 Frequencies --   1461.0445              1485.4733              1506.7331
 Red. masses --      1.1676                 1.0855                 1.0377
 Frc consts  --      1.4684                 1.4113                 1.3880
 IR Inten    --      4.6898                 5.1045                 7.8866

                     25                     26                     27
                      A                      A                      A
 Frequencies --   1514.7871              1865.2339              3076.4012
 Red. masses --      1.0711                11.5437                 1.0355
 Frc consts  --      1.4480                23.6625                 5.7740
 IR Inten    --     14.6871               298.7526                13.8503

                     28                     29                     30
                      A                      A                      A
 Frequencies --   3093.3571              3144.2853              3153.2824
 Red. masses --      1.0622                 1.1014                 1.1038
 Frc consts  --      5.9886                 6.4158                 6.4667
 IR Inten    --      7.8013                 4.7566                10.9861

                     31                     32                     33
                      A                      A                      A
 Frequencies --   3166.3280              3208.3970              3359.4376
 Red. masses --      1.1030                 1.0425                 1.1297
 Frc consts  --      6.5156                 6.3226                 7.5120
 IR Inten    --     14.3547                 7.7283                 0.4132

 - Thermochemistry -
 -------------------
 Temperature   298.150 Kelvin.  Pressure   1.00000 Atm.
 Atom     1 has atomic number  8 and mass  15.99491

 Molecular mass:    87.04460 amu.
 Principal axes and moments of inertia in atomic units:
                           1         2         3
     Eigenvalues --   278.24388 684.74574 861.56749
           X            1.00000  -0.00091   0.00152
           Y            0.00095   0.99961  -0.02803
           Z           -0.00150   0.02803   0.99961
 This molecule is an asymmetric top.
 Rotational symmetry number  1.
 Rotational temperatures (Kelvin)      0.31129     0.12649     0.10053
 Rotational constants (GHZ):           6.48618     2.63564     2.09472
 Zero-point vibrational energy     275092.5 (Joules/Mol)
                                   65.74869 (Kcal/Mol)
 Warning -- explicit consideration of   8 degrees of freedom as
           vibrations may cause significant error
 Vibrational temperatures:     44.03   190.81   313.20   340.69   419.56
          (Kelvin)            447.77   487.03   648.13   906.00  1071.36
                             1152.46  1225.78  1418.08  1542.29  1586.35
                             1723.03  1743.56  1818.11  1888.29  1955.76
                             2036.42  2102.12  2137.26  2167.85  2179.44
                             2683.66  4426.26  4450.65  4523.93  4536.87
                             4555.64  4616.17  4833.48

 Zero-point correction=                           0.104777 (Hartree/Particle)
 Thermal correction to Energy=                    0.112242
 Thermal correction to Enthalpy=                  0.113186
 Thermal correction to Gibbs Free Energy=         0.072272
 Sum of electronic and zero-point Energies=           -306.902667
 Sum of electronic and thermal Energies=              -306.895202
 Sum of electronic and thermal Enthalpies=            -306.894258
 Sum of electronic and thermal Free Energies=         -306.935172

                     E (Thermal)             CV                S
                      KCal/Mol        Cal/Mol-Kelvin    Cal/Mol-Kelvin
 Total                   70.433             24.938             86.110
 Electronic               0.000              0.000              1.377
 Translational            0.889              2.981             39.304
 Rotational               0.889              2.981             26.598
 Vibrational             68.655             18.977             18.830
 Vibration     1          0.594              1.984              5.790
 Vibration     2          0.613              1.921              2.908
 Vibration     3          0.646              1.814              1.978
 Vibration     4          0.656              1.784              1.827
 Vibration     5          0.687              1.689              1.465
 Vibration     6          0.700              1.652              1.356
 Vibration     7          0.719              1.599              1.219
 Vibration     8          0.809              1.360              0.794

                           ! Non-Optimized Parameters !
 Normal termination of Gaussian 16 at Tue Apr  9 02:39:34 2019.
