 Gaussian 16, Revision A.03,
 Gaussian 16:  EM64L-G16RevA.03 25-Dec-2016

 ----------------------------------------------
 #p m062x/6-311+g(2df,2p) Opt=(CalcFC,ModRedun)
 ----------------------------------------------

 ----------------------------------------
 Gaussian Input Prepared from Scan Object
 ----------------------------------------
 Symbolic Z-matrix:
 Charge =  0 Multiplicity = 2

 SCF Done:  E(UM062X) =  -307.009082151     A.U. after   15 cycles

  Exact polarizability:   0.000   0.000   0.000   0.000   0.000   0.000
 Approx polarizability:  66.252  -1.587  67.042  -0.149   0.008  53.019

 Optimization completed.
    -- Stationary point found.
 SCF Done:  E(UM062X) =  -307.007806189     A.U. after   11 cycles
 SCF Done:  E(UM062X) =  -307.008957117     A.U. after   12 cycles
 SCF Done:  E(UM062X) =  -307.008969907     A.U. after   10 cycles
 Optimization completed.
 SCF Done:  E(UM062X) =  -307.007486404     A.U. after   12 cycles
 SCF Done:  E(UM062X) =  -307.008655632     A.U. after   12 cycles
 SCF Done:  E(UM062X) =  -307.008668019     A.U. after    9 cycles
 SCF Done:  E(UM062X) =  -307.007034022     A.U. after   12 cycles
 SCF Done:  E(UM062X) =  -307.008247028     A.U. after   12 cycles
 SCF Done:  E(UM062X) =  -307.008260753     A.U. after    9 cycles
 SCF Done:  E(UM062X) =  -307.007428809     A.U. after   12 cycles
 SCF Done:  E(UM062X) =  -307.008657761     A.U. after   12 cycles
 SCF Done:  E(UM062X) =  -307.008667717     A.U. after    9 cycles
 SCF Done:  E(UM062X) =  -307.007772688     A.U. after   11 cycles
 SCF Done:  E(UM062X) =  -307.008957646     A.U. after   12 cycles
 SCF Done:  E(UM062X) =  -307.008970688     A.U. after   10 cycles
    -- Stationary point found.
 SCF Done:  E(UM062X) =  -307.007909619     A.U. after   11 cycles
 SCF Done:  E(UM062X) =  -307.009065213     A.U. after   12 cycles
 SCF Done:  E(UM062X) =  -307.009081491     A.U. after    9 cycles
 SCF Done:  E(UM062X) =  -307.009082123     A.U. after    8 cycles
 Optimization completed.
    -- Stationary point found.

                         Standard orientation:
 ---------------------------------------------------------------------
 Center     Atomic      Atomic             Coordinates (Angstroms)
 Number     Number       Type             X           Y           Z
 ---------------------------------------------------------------------
      1          8           0        1.218761   -0.660203   -0.001473
      2          8           0        0.129249    1.304973   -0.006506
      3          6           0       -1.137428   -0.748259   -0.001061
      4          6           0       -2.410512    0.080254    0.006493
      5          6           0        0.096282    0.110246   -0.003183
      6          6           0        2.426316   -0.035527   -0.025518
      7          1           0       -1.081633   -1.400248   -0.874917
      8          1           0       -1.076092   -1.408225    0.866259
      9          1           0       -3.285480   -0.566517    0.006617
     10          1           0       -2.454962    0.726106   -0.868126
     11          1           0       -2.449567    0.718816    0.886760
     12          1           0        2.453824    1.032311    0.098852
     13          1           0        3.261886   -0.700691    0.088002
 ---------------------------------------------------------------------

 The electronic state is 2-A.
 Alpha  occ. eigenvalues --  -19.69220 -19.62477 -10.67876 -10.59676 -10.55790
 Alpha  occ. eigenvalues --  -10.53325  -1.25838  -1.16358  -0.90253  -0.82592
 Alpha  occ. eigenvalues --   -0.73169  -0.65635  -0.60251  -0.58384  -0.57794
 Alpha  occ. eigenvalues --   -0.52596  -0.51819  -0.45763  -0.44875  -0.43998
 Alpha  occ. eigenvalues --   -0.43852  -0.42126  -0.36832  -0.25609
 Alpha virt. eigenvalues --    0.01170   0.02794   0.03667   0.04034   0.04659
 Alpha virt. eigenvalues --    0.05121   0.05704   0.07630   0.08378   0.09063
 Alpha virt. eigenvalues --    0.09375   0.09517   0.11533   0.12539   0.14170

  Beta  occ. eigenvalues --  -19.69055 -19.62425 -10.67866 -10.58946 -10.55793
  Beta  occ. eigenvalues --  -10.53326  -1.25197  -1.15965  -0.89987  -0.80920
  Beta  occ. eigenvalues --   -0.72243  -0.64257  -0.59986  -0.57329  -0.56965
  Beta  occ. eigenvalues --   -0.52113  -0.50672  -0.45441  -0.44722  -0.43700
  Beta  occ. eigenvalues --   -0.42528  -0.41706  -0.36696
  Beta virt. eigenvalues --   -0.03156   0.01001   0.02656   0.03652   0.04637
  Beta virt. eigenvalues --    0.04901   0.05134   0.05751   0.08078   0.08232
  Beta virt. eigenvalues --    0.08728   0.09634   0.09990   0.12078   0.12613

 Mulliken charges and spin densities:
               1          2
     1  O   -0.097400  -0.021986
     2  O   -0.407630   0.037322
     3  C   -0.111434  -0.007369
     4  C   -0.491962   0.000650
     5  C    0.231486   0.035574
     6  C   -0.253472   1.023816
     7  H    0.159228   0.001785
     8  H    0.158631   0.001492
     9  H    0.134610  -0.000095
    10  H    0.152111   0.000173
    11  H    0.151760   0.000193
    12  H    0.202153  -0.036055
    13  H    0.171919  -0.035498
 Sum of Mulliken charges =  -0.00000   1.00000

 Dipole moment (field-independent basis, Debye):
    X=             -0.3686    Y=             -1.8289    Z=              0.2111  Tot=              1.8776
 Quadrupole moment (field-independent basis, Debye-Ang):
   XX=            -31.7101   YY=            -39.7204   ZZ=            -36.6177
   XY=              1.0938   XZ=              0.6507   YZ=              0.0775

 Normal termination of Gaussian 16 at Tue Apr 23 23:23:21 2019.
