 Gaussian 16, Revision A.03,
 Gaussian 16:  EM64L-G16RevA.03 25-Dec-2016

 ----------------------------------------------
 #p m062x/6-311+g(2df,2p) Opt=(CalcFC,ModRedun)
 ----------------------------------------------

 ----------------------------------------
 Gaussian Input Prepared from Scan Object
 ----------------------------------------
 Symbolic Z-matrix:
 Charge =  0 Multiplicity = 2

 SCF Done:  E(UM062X) =  -307.009082151     A.U. after   15 cycles

  Exact polarizability:   0.000   0.000   0.000   0.000   0.000   0.000
 Approx polarizability:  66.252  -1.587  67.042  -0.149   0.008  53.019

 Optimization completed.
    -- Stationary point found.
 SCF Done:  E(UM062X) =  -307.003687392     A.U. after   16 cycles
 SCF Done:  E(UM062X) =  -307.005243922     A.U. after   12 cycles
 SCF Done:  E(UM062X) =  -307.005436842     A.U. after   12 cycles
 SCF Done:  E(UM062X) =  -307.005712130     A.U. after   13 cycles
 SCF Done:  E(UM062X) =  -307.005855692     A.U. after   11 cycles
 SCF Done:  E(UM062X) =  -307.005556931     A.U. after   13 cycles
 SCF Done:  E(UM062X) =  -307.005938559     A.U. after   10 cycles
 SCF Done:  E(UM062X) =  -307.005923815     A.U. after   12 cycles
 SCF Done:  E(UM062X) =  -307.005952586     A.U. after   11 cycles
 Optimization completed.
 SCF Done:  E(UM062X) =  -307.005473319     A.U. after   12 cycles
 SCF Done:  E(UM062X) =  -307.005476218     A.U. after   10 cycles
 SCF Done:  E(UM062X) =  -307.005476396     A.U. after    8 cycles
    -- Stationary point found.
 SCF Done:  E(UM062X) =  -307.007727479     A.U. after   14 cycles
 SCF Done:  E(UM062X) =  -307.008958824     A.U. after   13 cycles
 SCF Done:  E(UM062X) =  -307.009039605     A.U. after   11 cycles
 SCF Done:  E(UM062X) =  -307.009078537     A.U. after   12 cycles
 SCF Done:  E(UM062X) =  -307.009081002     A.U. after    9 cycles
 SCF Done:  E(UM062X) =  -307.009081988     A.U. after    9 cycles
 SCF Done:  E(UM062X) =  -307.009082146     A.U. after    8 cycles
 Optimization completed.
    -- Stationary point found.

                         Standard orientation:
 ---------------------------------------------------------------------
 Center     Atomic      Atomic             Coordinates (Angstroms)
 Number     Number       Type             X           Y           Z
 ---------------------------------------------------------------------
      1          8           0        1.218821   -0.660192   -0.001492
      2          8           0        0.129182    1.304912   -0.006428
      3          6           0       -1.137464   -0.748198   -0.000954
      4          6           0       -2.410528    0.080270    0.006425
      5          6           0        0.096327    0.110187   -0.003324
      6          6           0        2.426369   -0.035471   -0.025739
      7          1           0       -1.081918   -1.400670   -0.874477
      8          1           0       -1.075940   -1.407817    0.866656
      9          1           0       -3.285416   -0.566611    0.006751
     10          1           0       -2.455072    0.725866   -0.868375
     11          1           0       -2.449585    0.719046    0.886520
     12          1           0        2.453799    1.032301    0.099317
     13          1           0        3.261877   -0.700602    0.088524
 ---------------------------------------------------------------------

 The electronic state is 2-A.
 Alpha  occ. eigenvalues --  -19.69220 -19.62476 -10.67876 -10.59678 -10.55789
 Alpha  occ. eigenvalues --  -10.53325  -1.25839  -1.16358  -0.90252  -0.82594
 Alpha  occ. eigenvalues --   -0.73169  -0.65635  -0.60251  -0.58385  -0.57793
 Alpha  occ. eigenvalues --   -0.52596  -0.51819  -0.45762  -0.44876  -0.43999
 Alpha  occ. eigenvalues --   -0.43850  -0.42125  -0.36831  -0.25613
 Alpha virt. eigenvalues --    0.01170   0.02795   0.03667   0.04035   0.04659
 Alpha virt. eigenvalues --    0.05121   0.05704   0.07630   0.08379   0.09063
 Alpha virt. eigenvalues --    0.09376   0.09517   0.11533   0.12540   0.14170

  Beta  occ. eigenvalues --  -19.69055 -19.62424 -10.67865 -10.58948 -10.55792
  Beta  occ. eigenvalues --  -10.53326  -1.25197  -1.15966  -0.89987  -0.80921
  Beta  occ. eigenvalues --   -0.72243  -0.64257  -0.59986  -0.57330  -0.56963
  Beta  occ. eigenvalues --   -0.52113  -0.50672  -0.45441  -0.44723  -0.43700
  Beta  occ. eigenvalues --   -0.42528  -0.41705  -0.36695
  Beta virt. eigenvalues --   -0.03157   0.01000   0.02656   0.03652   0.04637
  Beta virt. eigenvalues --    0.04901   0.05134   0.05751   0.08078   0.08232
  Beta virt. eigenvalues --    0.08728   0.09634   0.09991   0.12079   0.12613

 Mulliken charges and spin densities:
               1          2
     1  O   -0.097386  -0.021975
     2  O   -0.407614   0.037306
     3  C   -0.111403  -0.007371
     4  C   -0.491956   0.000650
     5  C    0.231427   0.035566
     6  C   -0.253348   1.023765
     7  H    0.159214   0.001783
     8  H    0.158624   0.001491
     9  H    0.134607  -0.000095
    10  H    0.152113   0.000173
    11  H    0.151759   0.000193
    12  H    0.202089  -0.036021
    13  H    0.171875  -0.035464
 Sum of Mulliken charges =  -0.00000   1.00000

 Dipole moment (field-independent basis, Debye):
    X=             -0.3684    Y=             -1.8289    Z=              0.2121  Tot=              1.8777
 Quadrupole moment (field-independent basis, Debye-Ang):
   XX=            -31.7102   YY=            -39.7206   ZZ=            -36.6173
   XY=              1.0940   XZ=              0.6544   YZ=              0.0775

 Normal termination of Gaussian 16 at Fri Mar 29 18:11:15 2019.
