 Gaussian 16, Revision A.03,
 Gaussian 16:  EM64L-G16RevA.03 25-Dec-2016

 ----------------------------------------------------------------------
 #p m062x/6-311+g(2df,2p) opt=(calcfc,verytight,gdiis,maxcycles=900) fr
 eq iop(7/33=1,2/16=3)
 ----------------------------------------------------------------------

 ------------------------------
 Gaussian input prepared by ASE
 ------------------------------
 Symbolic Z-matrix:
 Charge =  0 Multiplicity = 2

 SCF Done:  E(UM062X) =  -306.983846556     A.U. after   16 cycles
 SCF Done:  E(UM062X) =  -307.000276719     A.U. after   14 cycles
 SCF Done:  E(UM062X) =  -307.002307632     A.U. after   14 cycles
 SCF Done:  E(UM062X) =  -307.003072251     A.U. after   13 cycles
 SCF Done:  E(UM062X) =  -307.004337870     A.U. after   13 cycles
 SCF Done:  E(UM062X) =  -307.006611544     A.U. after   15 cycles
 SCF Done:  E(UM062X) =  -307.007272675     A.U. after   12 cycles
 SCF Done:  E(UM062X) =  -307.007320250     A.U. after   12 cycles
 SCF Done:  E(UM062X) =  -307.007412709     A.U. after   11 cycles
 SCF Done:  E(UM062X) =  -307.007409655     A.U. after   12 cycles
 SCF Done:  E(UM062X) =  -307.007444140     A.U. after    4 cycles
 SCF Done:  E(UM062X) =  -307.007444140     A.U. after    4 cycles
 SCF Done:  E(UM062X) =  -307.007444140     A.U. after    4 cycles
 SCF Done:  E(UM062X) =  -307.007444140     A.U. after    3 cycles
 SCF Done:  E(UM062X) =  -307.007444140     A.U. after    4 cycles
 SCF Done:  E(UM062X) =  -307.007444139     A.U. after    4 cycles
 SCF Done:  E(UM062X) =  -307.007444140     A.U. after    4 cycles
 SCF Done:  E(UM062X) =  -307.007444140     A.U. after    3 cycles
 SCF Done:  E(UM062X) =  -307.007444140     A.U. after    3 cycles
 Optimization completed.
    -- Stationary point found.
 Normal termination of Gaussian 16 at Tue Apr  9 02:47:48 2019.

 ----------------------------------------------------------------------
 #P Geom=AllCheck Guess=TCheck SCRF=Check Test GenChk UM062X/6-311+G(2d
 f,2p) Freq
 ----------------------------------------------------------------------

 Structure from the checkpoint file:  "/scratch/underkoffler.c/gaussian_scratch/Gau-43030.chk"
 ------------------------------
 Gaussian input prepared by ASE
 ------------------------------
 Charge =  0 Multiplicity = 2

                         Standard orientation:
 ---------------------------------------------------------------------
 Center     Atomic      Atomic             Coordinates (Angstroms)
 Number     Number       Type             X           Y           Z
 ---------------------------------------------------------------------
      1          8           0       -0.833342   -0.680004   -0.255998
      2          8           0       -0.581179    1.483962    0.293365
      3          6           0        1.312835    0.250739   -0.552017
      4          6           0        2.054591   -0.641785    0.446803
      5          6           0       -0.111056    0.468672   -0.127554
      6          6           0       -2.132845   -0.670117    0.142399
      7          1           0        1.313126   -0.214338   -1.537991
      8          1           0        1.779925    1.229419   -0.624300
      9          1           0        3.087819   -0.777402    0.133801
     10          1           0        1.584053   -1.620743    0.512947
     11          1           0        2.055831   -0.191882    1.438658
     12          1           0       -2.666609   -1.572178   -0.092024
     13          1           0       -2.579123    0.270411    0.412184
 ---------------------------------------------------------------------

 SCF Done:  E(UM062X) =  -307.007444140     A.U. after    1 cycles

 The electronic state is 2-A.
 Alpha  occ. eigenvalues --  -19.69272 -19.62379 -10.67819 -10.59702 -10.55712
 Alpha  occ. eigenvalues --  -10.54209  -1.25811  -1.16253  -0.90587  -0.82014
 Alpha  occ. eigenvalues --   -0.74079  -0.65974  -0.60022  -0.58519  -0.56909
 Alpha  occ. eigenvalues --   -0.52720  -0.51380  -0.47464  -0.45545  -0.44423
 Alpha  occ. eigenvalues --   -0.42918  -0.42627  -0.36354  -0.25628
 Alpha virt. eigenvalues --    0.01088   0.02728   0.03229   0.04144   0.04674
 Alpha virt. eigenvalues --    0.05219   0.06263   0.07369   0.08085   0.08209
 Alpha virt. eigenvalues --    0.09762   0.10706   0.11336   0.12805   0.12985

  Beta  occ. eigenvalues --  -19.69112 -19.62324 -10.67808 -10.58974 -10.55716
  Beta  occ. eigenvalues --  -10.54204  -1.25170  -1.15863  -0.90298  -0.80224
  Beta  occ. eigenvalues --   -0.73451  -0.64437  -0.59548  -0.57936  -0.55431
  Beta  occ. eigenvalues --   -0.52391  -0.50868  -0.46804  -0.44831  -0.44085
  Beta  occ. eigenvalues --   -0.42856  -0.41495  -0.36220
  Beta virt. eigenvalues --   -0.03239   0.01032   0.02503   0.03335   0.04170
  Beta virt. eigenvalues --    0.05091   0.05422   0.06309   0.07873   0.08266
  Beta virt. eigenvalues --    0.08671   0.09195   0.10719   0.12148   0.12598

 Mulliken charges and spin densities:
               1          2
     1  O   -0.089884  -0.022940
     2  O   -0.387025   0.039624
     3  C   -0.365913  -0.006259
     4  C   -0.390170   0.006185
     5  C    0.323755   0.031087
     6  C   -0.257168   1.023923
     7  H    0.174731   0.000745
     8  H    0.169535  -0.000246
     9  H    0.139194   0.000592
    10  H    0.153500  -0.000393
    11  H    0.152838  -0.000610
    12  H    0.172293  -0.035540
    13  H    0.204314  -0.036169
 Sum of Mulliken charges =  -0.00000   1.00000

 Dipole moment (field-independent basis, Debye):
    X=              1.0223    Y=             -1.6689    Z=             -0.7604  Tot=              2.0997
 Quadrupole moment (field-independent basis, Debye-Ang):
   XX=            -31.6846   YY=            -40.3084   ZZ=            -36.8950
   XY=              2.2326   XZ=             -0.1511   YZ=             -0.9281

  Exact polarizability:  66.590   2.714  55.078  -1.510   0.349  45.697
 Approx polarizability:  65.039   1.124  66.994  -2.183   3.011  54.885

                      1                      2                      3
                      A                      A                      A
 Frequencies --     30.5998               132.6202               217.6850
 Red. masses --      2.8709                 2.6105                 1.1284
 Frc consts  --      0.0016                 0.0271                 0.0315
 IR Inten    --      0.5315                 3.0865                 0.2233

                      4                      5                      6
                      A                      A                      A
 Frequencies --    236.7920               291.6123               311.2254
 Red. masses --      1.6174                 1.8032                 1.3462
 Frc consts  --      0.0534                 0.0903                 0.0768
 IR Inten    --      8.5530                 1.9932                57.0388

                      7                      8                      9
                      A                      A                      A
 Frequencies --    338.5002               450.4700               629.7053
 Red. masses --      2.9121                 3.1680                 4.1905
 Frc consts  --      0.1966                 0.3788                 0.9790
 IR Inten    --      6.9831                 5.4803                 6.2143

                     10                     11                     12
                      A                      A                      A
 Frequencies --    744.6344               801.0012               851.9603
 Red. masses --      3.2132                 1.4519                 2.6945
 Frc consts  --      1.0497                 0.5488                 1.1523
 IR Inten    --      4.8618                 2.7204                19.5853

                     13                     14                     15
                      A                      A                      A
 Frequencies --    985.6123              1071.9452              1102.5650
 Red. masses --      1.9014                 2.1693                 1.7584
 Frc consts  --      1.0883                 1.4686                 1.2594
 IR Inten    --     33.1581                28.2573                 5.0185

                     16                     17                     18
                      A                      A                      A
 Frequencies --   1197.5656              1211.8346              1263.6509
 Red. masses --      1.8915                 2.2275                 2.2318
 Frc consts  --      1.5983                 1.9273                 2.0997
 IR Inten    --     30.2999                 5.1028               201.4417

                     19                     20                     21
                      A                      A                      A
 Frequencies --   1312.4286              1359.3216              1415.3837
 Red. masses --      1.5940                 1.7767                 1.2250
 Frc consts  --      1.6177                 1.9342                 1.4459
 IR Inten    --    160.3507                58.2433                 5.1722

                     22                     23                     24
                      A                      A                      A
 Frequencies --   1461.0439              1485.4730              1506.7322
 Red. masses --      1.1676                 1.0855                 1.0377
 Frc consts  --      1.4684                 1.4113                 1.3880
 IR Inten    --      4.6900                 5.1045                 7.8866

                     25                     26                     27
                      A                      A                      A
 Frequencies --   1514.7864              1865.2332              3076.4020
 Red. masses --      1.0711                11.5437                 1.0355
 Frc consts  --      1.4480                23.6625                 5.7740
 IR Inten    --     14.6871               298.7500                13.8508

                     28                     29                     30
                      A                      A                      A
 Frequencies --   3093.3622              3144.2862              3153.2836
 Red. masses --      1.0622                 1.1014                 1.1038
 Frc consts  --      5.9886                 6.4158                 6.4667
 IR Inten    --      7.8006                 4.7556                10.9874

                     31                     32                     33
                      A                      A                      A
 Frequencies --   3166.3290              3208.3977              3359.4381
 Red. masses --      1.1030                 1.0425                 1.1297
 Frc consts  --      6.5156                 6.3226                 7.5120
 IR Inten    --     14.3540                 7.7284                 0.4132

 - Thermochemistry -
 -------------------
 Temperature   298.150 Kelvin.  Pressure   1.00000 Atm.
 Atom     1 has atomic number  8 and mass  15.99491

 Molecular mass:    87.04460 amu.
 Principal axes and moments of inertia in atomic units:
                           1         2         3
     Eigenvalues --   278.24164 684.75101 861.56493
           X            1.00000  -0.00091   0.00152
           Y            0.00095   0.99961  -0.02803
           Z           -0.00150   0.02803   0.99961
 This molecule is an asymmetric top.
 Rotational symmetry number  1.
 Rotational temperatures (Kelvin)      0.31129     0.12649     0.10053
 Rotational constants (GHZ):           6.48624     2.63562     2.09472
 Zero-point vibrational energy     275092.5 (Joules/Mol)
                                   65.74869 (Kcal/Mol)
 Warning -- explicit consideration of   8 degrees of freedom as
           vibrations may cause significant error
 Vibrational temperatures:     44.03   190.81   313.20   340.69   419.57
          (Kelvin)            447.78   487.03   648.13   906.01  1071.36
                             1152.46  1225.78  1418.08  1542.29  1586.35
                             1723.03  1743.56  1818.11  1888.29  1955.76
                             2036.42  2102.12  2137.26  2167.85  2179.44
                             2683.65  4426.26  4450.66  4523.93  4536.87
                             4555.64  4616.17  4833.48

 Zero-point correction=                           0.104777 (Hartree/Particle)
 Thermal correction to Energy=                    0.112242
 Thermal correction to Enthalpy=                  0.113186
 Thermal correction to Gibbs Free Energy=         0.072272
 Sum of electronic and zero-point Energies=           -306.902667
 Sum of electronic and thermal Energies=              -306.895202
 Sum of electronic and thermal Enthalpies=            -306.894258
 Sum of electronic and thermal Free Energies=         -306.935172

                     E (Thermal)             CV                S
                      KCal/Mol        Cal/Mol-Kelvin    Cal/Mol-Kelvin
 Total                   70.433             24.938             86.110
 Electronic               0.000              0.000              1.377
 Translational            0.889              2.981             39.304
 Rotational               0.889              2.981             26.598
 Vibrational             68.655             18.977             18.830
 Vibration     1          0.594              1.984              5.790
 Vibration     2          0.613              1.921              2.908
 Vibration     3          0.646              1.814              1.978
 Vibration     4          0.656              1.784              1.827
 Vibration     5          0.687              1.689              1.465
 Vibration     6          0.700              1.652              1.356
 Vibration     7          0.719              1.599              1.219
 Vibration     8          0.809              1.360              0.794

                           ! Non-Optimized Parameters !
 Normal termination of Gaussian 16 at Tue Apr  9 02:53:17 2019.
