 Gaussian 16, Revision A.03,
 Gaussian 16:  EM64L-G16RevA.03 25-Dec-2016

 ----------------------------------------------
 #p m062x/6-311+g(2df,2p) Opt=(CalcFC,ModRedun)
 ----------------------------------------------

 ----------------------------------------
 Gaussian Input Prepared from Scan Object
 ----------------------------------------
 Symbolic Z-matrix:
 Charge =  0 Multiplicity = 2

 SCF Done:  E(UM062X) =  -307.009082151     A.U. after   15 cycles

  Exact polarizability:   0.000   0.000   0.000   0.000   0.000   0.000
 Approx polarizability:  66.252  -1.587  67.042  -0.149   0.008  53.019

 Optimization completed.
    -- Stationary point found.
 SCF Done:  E(UM062X) =  -307.007846084     A.U. after   11 cycles
 SCF Done:  E(UM062X) =  -307.008970822     A.U. after   12 cycles
 SCF Done:  E(UM062X) =  -307.008983858     A.U. after   10 cycles
 Optimization completed.
 SCF Done:  E(UM062X) =  -307.007560889     A.U. after   12 cycles
 SCF Done:  E(UM062X) =  -307.008698740     A.U. after   12 cycles
 SCF Done:  E(UM062X) =  -307.008710743     A.U. after   10 cycles
 SCF Done:  E(UM062X) =  -307.007131082     A.U. after   12 cycles
 SCF Done:  E(UM062X) =  -307.008306108     A.U. after   12 cycles
 SCF Done:  E(UM062X) =  -307.008320746     A.U. after   10 cycles
 SCF Done:  E(UM062X) =  -307.008310416     A.U. after    8 cycles
 SCF Done:  E(UM062X) =  -307.007511442     A.U. after   12 cycles
 SCF Done:  E(UM062X) =  -307.008696178     A.U. after   12 cycles
 SCF Done:  E(UM062X) =  -307.008707071     A.U. after    9 cycles
 SCF Done:  E(UM062X) =  -307.007824953     A.U. after   11 cycles
 SCF Done:  E(UM062X) =  -307.008973928     A.U. after   12 cycles
 SCF Done:  E(UM062X) =  -307.008984141     A.U. after    9 cycles
    -- Stationary point found.
 SCF Done:  E(UM062X) =  -307.007937726     A.U. after   11 cycles
 SCF Done:  E(UM062X) =  -307.009072307     A.U. after   12 cycles
 SCF Done:  E(UM062X) =  -307.009082087     A.U. after   10 cycles
 Optimization completed.
    -- Stationary point found.

                         Standard orientation:
 ---------------------------------------------------------------------
 Center     Atomic      Atomic             Coordinates (Angstroms)
 Number     Number       Type             X           Y           Z
 ---------------------------------------------------------------------
      1          8           0        1.218683   -0.660193   -0.001292
      2          8           0        0.129257    1.305019   -0.006366
      3          6           0       -1.137405   -0.748367   -0.001199
      4          6           0       -2.410363    0.080320    0.006471
      5          6           0        0.096217    0.110284   -0.003208
      6          6           0        2.426253   -0.035590   -0.025447
      7          1           0       -1.082083   -1.400574   -0.874950
      8          1           0       -1.075873   -1.408253    0.866151
      9          1           0       -3.285340   -0.566445    0.006998
     10          1           0       -2.455017    0.726000   -0.868247
     11          1           0       -2.449162    0.719069    0.886613
     12          1           0        2.453853    1.032426    0.097261
     13          1           0        3.261885   -0.700715    0.087742
 ---------------------------------------------------------------------

 The electronic state is 2-A.
 Alpha  occ. eigenvalues --  -19.69220 -19.62478 -10.67876 -10.59675 -10.55790
 Alpha  occ. eigenvalues --  -10.53324  -1.25838  -1.16358  -0.90253  -0.82592
 Alpha  occ. eigenvalues --   -0.73167  -0.65635  -0.60253  -0.58383  -0.57794
 Alpha  occ. eigenvalues --   -0.52598  -0.51818  -0.45762  -0.44874  -0.43997
 Alpha  occ. eigenvalues --   -0.43853  -0.42126  -0.36833  -0.25605
 Alpha virt. eigenvalues --    0.01170   0.02794   0.03667   0.04034   0.04658
 Alpha virt. eigenvalues --    0.05121   0.05704   0.07631   0.08378   0.09064
 Alpha virt. eigenvalues --    0.09373   0.09517   0.11535   0.12539   0.14169

  Beta  occ. eigenvalues --  -19.69055 -19.62425 -10.67866 -10.58945 -10.55793
  Beta  occ. eigenvalues --  -10.53325  -1.25197  -1.15965  -0.89987  -0.80919
  Beta  occ. eigenvalues --   -0.72241  -0.64257  -0.59988  -0.57329  -0.56964
  Beta  occ. eigenvalues --   -0.52115  -0.50672  -0.45440  -0.44722  -0.43701
  Beta  occ. eigenvalues --   -0.42528  -0.41706  -0.36697
  Beta virt. eigenvalues --   -0.03154   0.01000   0.02656   0.03652   0.04637
  Beta virt. eigenvalues --    0.04900   0.05134   0.05751   0.08079   0.08232
  Beta virt. eigenvalues --    0.08728   0.09634   0.09990   0.12078   0.12614

 Mulliken charges and spin densities:
               1          2
     1  O   -0.097390  -0.022009
     2  O   -0.407677   0.037350
     3  C   -0.111453  -0.007368
     4  C   -0.491994   0.000649
     5  C    0.231570   0.035582
     6  C   -0.253646   1.023878
     7  H    0.159233   0.001787
     8  H    0.158647   0.001494
     9  H    0.134596  -0.000095
    10  H    0.152129   0.000173
    11  H    0.151760   0.000193
    12  H    0.202260  -0.036097
    13  H    0.171966  -0.035538
 Sum of Mulliken charges =  -0.00000   1.00000

 Dipole moment (field-independent basis, Debye):
    X=             -0.3684    Y=             -1.8290    Z=              0.2091  Tot=              1.8774
 Quadrupole moment (field-independent basis, Debye-Ang):
   XX=            -31.7106   YY=            -39.7188   ZZ=            -36.6186
   XY=              1.0947   XZ=              0.6463   YZ=              0.0756

 Normal termination of Gaussian 16 at Mon Mar 11 22:40:20 2019.
