 Gaussian 16, Revision A.03,
 Gaussian 16:  EM64L-G16RevA.03 25-Dec-2016

 ----------------------------------------------
 #p m062x/6-311+g(2df,2p) Opt=(CalcFC,ModRedun)
 ----------------------------------------------

 ----------------------------------------
 Gaussian Input Prepared from Scan Object
 ----------------------------------------
 Symbolic Z-matrix:
 Charge =  0 Multiplicity = 2

 SCF Done:  E(UM062X) =  -307.009082151     A.U. after   15 cycles

  Exact polarizability:   0.000   0.000   0.000   0.000   0.000   0.000
 Approx polarizability:  66.252  -1.587  67.042  -0.149   0.008  53.019

 Optimization completed.
    -- Stationary point found.
 SCF Done:  E(UM062X) =  -307.008511819     A.U. after   12 cycles
 SCF Done:  E(UM062X) =  -307.008601456     A.U. after   11 cycles
 Optimization completed.
 SCF Done:  E(UM062X) =  -307.007085289     A.U. after   12 cycles
 SCF Done:  E(UM062X) =  -307.007185809     A.U. after   11 cycles
 SCF Done:  E(UM062X) =  -307.007185995     A.U. after    8 cycles
 SCF Done:  E(UM062X) =  -307.007186043     A.U. after    7 cycles
 SCF Done:  E(UM062X) =  -307.004815790     A.U. after   13 cycles
 SCF Done:  E(UM062X) =  -307.004938112     A.U. after   11 cycles
 SCF Done:  E(UM062X) =  -307.004939985     A.U. after    9 cycles
 SCF Done:  E(UM062X) =  -307.002435960     A.U. after    9 cycles
 SCF Done:  E(UM062X) =  -307.004963055     A.U. after   14 cycles
 SCF Done:  E(UM062X) =  -307.005117122     A.U. after   12 cycles
 SCF Done:  E(UM062X) =  -307.007119321     A.U. after   13 cycles
 SCF Done:  E(UM062X) =  -307.007241243     A.U. after   11 cycles
 SCF Done:  E(UM062X) =  -307.008503829     A.U. after   12 cycles
 SCF Done:  E(UM062X) =  -307.008606743     A.U. after   11 cycles
 SCF Done:  E(UM062X) =  -307.008607023     A.U. after    8 cycles
    -- Stationary point found.
 SCF Done:  E(UM062X) =  -307.008991509     A.U. after   12 cycles
 SCF Done:  E(UM062X) =  -307.009082122     A.U. after   10 cycles
 Optimization completed.
    -- Stationary point found.

                         Standard orientation:
 ---------------------------------------------------------------------
 Center     Atomic      Atomic             Coordinates (Angstroms)
 Number     Number       Type             X           Y           Z
 ---------------------------------------------------------------------
      1          8           0        1.218858   -0.660163   -0.001464
      2          8           0        0.129130    1.304912   -0.006517
      3          6           0       -1.137446   -0.748209   -0.001086
      4          6           0       -2.410519    0.080263    0.006496
      5          6           0        0.096355    0.110170   -0.003195
      6          6           0        2.426367   -0.035434   -0.025501
      7          1           0       -1.081936   -1.400447   -0.874777
      8          1           0       -1.075969   -1.408069    0.866350
      9          1           0       -3.285392   -0.566639    0.006710
     10          1           0       -2.455105    0.726038   -0.868169
     11          1           0       -2.449557    0.718823    0.886748
     12          1           0        2.453769    1.032395    0.098865
     13          1           0        3.261744   -0.700841    0.087837
 ---------------------------------------------------------------------

 The electronic state is 2-A.
 Alpha  occ. eigenvalues --  -19.69221 -19.62476 -10.67875 -10.59677 -10.55789
 Alpha  occ. eigenvalues --  -10.53325  -1.25840  -1.16358  -0.90252  -0.82595
 Alpha  occ. eigenvalues --   -0.73169  -0.65636  -0.60251  -0.58384  -0.57794
 Alpha  occ. eigenvalues --   -0.52597  -0.51819  -0.45764  -0.44876  -0.43998
 Alpha  occ. eigenvalues --   -0.43851  -0.42125  -0.36830  -0.25610
 Alpha virt. eigenvalues --    0.01170   0.02794   0.03667   0.04035   0.04659
 Alpha virt. eigenvalues --    0.05121   0.05704   0.07630   0.08379   0.09063
 Alpha virt. eigenvalues --    0.09375   0.09517   0.11533   0.12540   0.14170

  Beta  occ. eigenvalues --  -19.69056 -19.62423 -10.67865 -10.58947 -10.55792
  Beta  occ. eigenvalues --  -10.53325  -1.25198  -1.15965  -0.89986  -0.80922
  Beta  occ. eigenvalues --   -0.72243  -0.64257  -0.59987  -0.57329  -0.56964
  Beta  occ. eigenvalues --   -0.52114  -0.50673  -0.45442  -0.44723  -0.43700
  Beta  occ. eigenvalues --   -0.42528  -0.41705  -0.36695
  Beta virt. eigenvalues --   -0.03156   0.01001   0.02656   0.03652   0.04637
  Beta virt. eigenvalues --    0.04901   0.05134   0.05751   0.08079   0.08232
  Beta virt. eigenvalues --    0.08728   0.09634   0.09991   0.12079   0.12613

 Mulliken charges and spin densities:
               1          2
     1  O   -0.097362  -0.021988
     2  O   -0.407648   0.037327
     3  C   -0.111419  -0.007369
     4  C   -0.491952   0.000650
     5  C    0.231456   0.035574
     6  C   -0.253488   1.023816
     7  H    0.159216   0.001785
     8  H    0.158618   0.001491
     9  H    0.134605  -0.000095
    10  H    0.152112   0.000173
    11  H    0.151759   0.000193
    12  H    0.202182  -0.036056
    13  H    0.171919  -0.035500
 Sum of Mulliken charges =  -0.00000   1.00000

 Dipole moment (field-independent basis, Debye):
    X=             -0.3680    Y=             -1.8292    Z=              0.2110  Tot=              1.8777
 Quadrupole moment (field-independent basis, Debye-Ang):
   XX=            -31.7102   YY=            -39.7198   ZZ=            -36.6178
   XY=              1.0937   XZ=              0.6505   YZ=              0.0778

 Normal termination of Gaussian 16 at Tue Apr 23 23:29:51 2019.
