 Gaussian 16, Revision A.03,
 Gaussian 16:  EM64L-G16RevA.03 25-Dec-2016

 ----------------------------------------------------------------------
 #p m062x/6-311+g(2df,2p) opt=(calcfc,verytight,gdiis,maxcycles=900) fr
 eq iop(7/33=1,2/16=3)
 ----------------------------------------------------------------------

 ------------------------------
 Gaussian input prepared by ASE
 ------------------------------
 Symbolic Z-matrix:
 Charge =  0 Multiplicity = 2

 SCF Done:  E(UM062X) =  -232.963356659     A.U. after   14 cycles
 SCF Done:  E(UM062X) =  -232.972594977     A.U. after   13 cycles
 SCF Done:  E(UM062X) =  -232.973193819     A.U. after   12 cycles
 SCF Done:  E(UM062X) =  -232.973240225     A.U. after   11 cycles
 SCF Done:  E(UM062X) =  -232.973244727     A.U. after   11 cycles
 SCF Done:  E(UM062X) =  -232.973244930     A.U. after    8 cycles
 SCF Done:  E(UM062X) =  -232.973244944     A.U. after    7 cycles
 SCF Done:  E(UM062X) =  -232.973244946     A.U. after    7 cycles
 SCF Done:  E(UM062X) =  -232.973244946     A.U. after    4 cycles
 SCF Done:  E(UM062X) =  -232.973244946     A.U. after    2 cycles
 SCF Done:  E(UM062X) =  -232.973244946     A.U. after    4 cycles
 Optimization completed.
    -- Stationary point found.
 Normal termination of Gaussian 16 at Sat Mar  9 00:24:52 2019.

 ----------------------------------------------------------------------
 #P Geom=AllCheck Guess=TCheck SCRF=Check Test GenChk UM062X/6-311+G(2d
 f,2p) Freq
 ----------------------------------------------------------------------

 Structure from the checkpoint file:  "/scratch/underkoffler.c/gaussian_scratch/Gau-9679.chk"
 ------------------------------
 Gaussian input prepared by ASE
 ------------------------------
 Charge =  0 Multiplicity = 2

                         Standard orientation:
 ---------------------------------------------------------------------
 Center     Atomic      Atomic             Coordinates (Angstroms)
 Number     Number       Type             X           Y           Z
 ---------------------------------------------------------------------
      1          8           0       -2.359984   -0.297055    0.031691
      2          6           0        1.296305    0.596280   -0.304649
      3          6           0       -0.125364    0.700629    0.248124
      4          6           0        2.030525   -0.656254    0.163712
      5          6           0       -1.028256   -0.369411   -0.253951
      6          1           0        1.255553    0.616609   -1.395558
      7          1           0        1.856843    1.478878    0.006670
      8          1           0       -0.082573    0.685135    1.348709
      9          1           0       -0.548586    1.675363   -0.023069
     10          1           0        1.558594   -1.564237   -0.209989
     11          1           0        3.062993   -0.657304   -0.183354
     12          1           0        2.042596   -0.711554    1.253427
     13          1           0       -0.695968   -1.391542   -0.356831
     14          1           0       -2.608835    0.617630    0.187053
 ---------------------------------------------------------------------

 SCF Done:  E(UM062X) =  -232.973244946     A.U. after    1 cycles

 The electronic state is 2-A.
 Alpha  occ. eigenvalues --  -19.64915 -10.57778 -10.54069 -10.53545 -10.52412
 Alpha  occ. eigenvalues --   -1.18016  -0.90260  -0.80975  -0.73410  -0.67389
 Alpha  occ. eigenvalues --   -0.58051  -0.55324  -0.51724  -0.49619  -0.48834
 Alpha  occ. eigenvalues --   -0.45431  -0.44205  -0.40382  -0.39914  -0.38711
 Alpha  occ. eigenvalues --   -0.22214
 Alpha virt. eigenvalues --    0.01546   0.02352   0.03145   0.04293   0.06066
 Alpha virt. eigenvalues --    0.06721   0.07527   0.07710   0.08682   0.10677
 Alpha virt. eigenvalues --    0.10819   0.11374   0.12359   0.12398   0.15923

  Beta  occ. eigenvalues --  -19.64558 -10.57031 -10.54110 -10.53535 -10.52414
  Beta  occ. eigenvalues --   -1.16717  -0.89820  -0.80115  -0.71931  -0.66990
  Beta  occ. eigenvalues --   -0.56829  -0.54292  -0.51173  -0.48454  -0.47435
  Beta  occ. eigenvalues --   -0.43861  -0.43027  -0.40155  -0.39541  -0.38178
  Beta virt. eigenvalues --   -0.00393   0.01708   0.02329   0.03087   0.03868
  Beta virt. eigenvalues --    0.05892   0.06607   0.07135   0.07586   0.09060
  Beta virt. eigenvalues --    0.10534   0.10732   0.11124   0.11908   0.12081

 Mulliken charges and spin densities:
               1          2
     1  O   -0.302216   0.085516
     2  C   -0.306122   0.072353
     3  C   -0.214409  -0.033180
     4  C   -0.442085  -0.010266
     5  C   -0.191396   0.887710
     6  H    0.168163  -0.011453
     7  H    0.147964  -0.001675
     8  H    0.172214   0.042030
     9  H    0.135549   0.017937
    10  H    0.138196  -0.000988
    11  H    0.139069  -0.000209
    12  H    0.139609  -0.002238
    13  H    0.164406  -0.041489
    14  H    0.251059  -0.004047
 Sum of Mulliken charges =  -0.00000   1.00000

 Dipole moment (field-independent basis, Debye):
    X=              0.8234    Y=              1.4442    Z=              0.4967  Tot=              1.7351
 Quadrupole moment (field-independent basis, Debye-Ang):
   XX=            -34.4101   YY=            -31.6478   ZZ=            -34.2696
   XY=             -4.1473   XZ=             -0.9690   YZ=              0.5031

  Exact polarizability:  63.080  -1.530  51.971  -0.883   1.288  48.956
 Approx polarizability:  63.863  -0.807  60.859  -0.782   1.622  59.148

                      1                      2                      3
                      A                      A                      A
 Frequencies --     63.2751               116.1434               217.1570
 Red. masses --      2.0185                 1.8367                 1.6732
 Frc consts  --      0.0048                 0.0146                 0.0465
 IR Inten    --      3.6310                 0.6352                 1.8402

                      4                      5                      6
                      A                      A                      A
 Frequencies --    286.9874               336.6407               352.6454
 Red. masses --      1.6489                 1.2992                 2.5332
 Frc consts  --      0.0800                 0.0868                 0.1856
 IR Inten    --      3.1971                64.9185                 2.7559

                      7                      8                      9
                      A                      A                      A
 Frequencies --    493.7782               570.3529               763.4068
 Red. masses --      2.7543                 1.1976                 1.2275
 Frc consts  --      0.3957                 0.2295                 0.4215
 IR Inten    --      0.3646                53.8571                 1.4019

                     10                     11                     12
                      A                      A                      A
 Frequencies --    887.5667               898.2935               987.7108
 Red. masses --      1.4518                 2.1467                 1.7565
 Frc consts  --      0.6738                 1.0206                 1.0096
 IR Inten    --      2.2469                 1.6932                29.8425

                     13                     14                     15
                      A                      A                      A
 Frequencies --   1080.7930              1103.7352              1117.0906
 Red. masses --      1.8624                 1.6877                 1.6095
 Frc consts  --      1.2818                 1.2114                 1.1834
 IR Inten    --      1.4867                18.6706                12.2552

                     16                     17                     18
                      A                      A                      A
 Frequencies --   1202.4283              1247.0573              1263.0494
 Red. masses --      1.4910                 1.4985                 1.8709
 Frc consts  --      1.2701                 1.3730                 1.7585
 IR Inten    --    101.2413                32.0452                15.1974

                     19                     20                     21
                      A                      A                      A
 Frequencies --   1322.7376              1373.0615              1378.8083
 Red. masses --      1.2306                 1.2931                 1.5618
 Frc consts  --      1.2685                 1.4364                 1.7493
 IR Inten    --      0.5536                15.0736                 1.1224

                     22                     23                     24
                      A                      A                      A
 Frequencies --   1420.0181              1454.0577              1483.5272
 Red. masses --      1.2774                 1.5614                 1.1726
 Frc consts  --      1.5176                 1.9450                 1.5205
 IR Inten    --      7.3294                68.9733                 5.5074

                     25                     26                     27
                      A                      A                      A
 Frequencies --   1493.9659              1506.1769              1512.2925
 Red. masses --      1.0664                 1.0582                 1.0581
 Frc consts  --      1.4023                 1.4144                 1.4258
 IR Inten    --      2.8963                 6.3452                11.2269

                     28                     29                     30
                      A                      A                      A
 Frequencies --   2959.5904              3022.9952              3062.6763
 Red. masses --      1.0696                 1.0865                 1.0448
 Frc consts  --      5.5197                 5.8500                 5.7744
 IR Inten    --     39.0129                27.8075                 7.2067

                     31                     32                     33
                      A                      A                      A
 Frequencies --   3066.7898              3099.2613              3131.6468
 Red. masses --      1.0535                 1.1027                 1.1013
 Frc consts  --      5.8380                 6.2407                 6.3638
 IR Inten    --     41.1800                 9.9434                30.4265

                     34                     35                     36
                      A                      A                      A
 Frequencies --   3139.6577              3222.4923              3883.5331
 Red. masses --      1.1020                 1.0884                 1.0659
 Frc consts  --      6.4001                 6.6591                 9.4717
 IR Inten    --     29.9109                11.1013                52.1024

 - Thermochemistry -
 -------------------
 Temperature   298.150 Kelvin.  Pressure   1.00000 Atm.
 Atom     1 has atomic number  8 and mass  15.99491

 Molecular mass:    73.06534 amu.
 Principal axes and moments of inertia in atomic units:
                           1         2         3
     Eigenvalues --   137.46400 745.07420 821.27374
           X            0.99973  -0.02296  -0.00206
           Y            0.02298   0.99968   0.01011
           Z            0.00183  -0.01016   0.99995
 This molecule is an asymmetric top.
 Rotational symmetry number  1.
 Rotational temperatures (Kelvin)      0.63008     0.11625     0.10546
 Rotational constants (GHZ):          13.12883     2.42223     2.19749
 Zero-point vibrational energy     326110.4 (Joules/Mol)
                                   77.94225 (Kcal/Mol)
 Warning -- explicit consideration of   8 degrees of freedom as
           vibrations may cause significant error
 Vibrational temperatures:     91.04   167.10   312.44   412.91   484.35
          (Kelvin)            507.38   710.44   820.61  1098.37  1277.01
                             1292.44  1421.10  1555.02  1588.03  1607.24
                             1730.03  1794.24  1817.25  1903.12  1975.53
                             1983.80  2043.09  2092.06  2134.46  2149.48
                             2167.05  2175.85  4258.19  4349.42  4406.51
                             4412.43  4459.15  4505.74  4517.27  4636.45
                             5587.54

 Zero-point correction=                           0.124209 (Hartree/Particle)
 Thermal correction to Energy=                    0.131081
 Thermal correction to Enthalpy=                  0.132025
 Thermal correction to Gibbs Free Energy=         0.093204
 Sum of electronic and zero-point Energies=           -232.849036
 Sum of electronic and thermal Energies=              -232.842164
 Sum of electronic and thermal Enthalpies=            -232.841220
 Sum of electronic and thermal Free Energies=         -232.880040

                     E (Thermal)             CV                S
                      KCal/Mol        Cal/Mol-Kelvin    Cal/Mol-Kelvin
 Total                   82.255             23.279             81.705
 Electronic               0.000              0.000              1.377
 Translational            0.889              2.981             38.783
 Rotational               0.889              2.981             25.934
 Vibrational             80.477             17.317             15.611
 Vibration     1          0.597              1.972              4.352
 Vibration     2          0.608              1.936              3.164
 Vibration     3          0.646              1.815              1.983
 Vibration     4          0.684              1.698              1.492
 Vibration     5          0.717              1.602              1.228
 Vibration     6          0.729              1.570              1.154
 Vibration     7          0.849              1.264              0.674
 Vibration     8          0.926              1.095              0.504

                           ! Non-Optimized Parameters !
 Normal termination of Gaussian 16 at Sat Mar  9 00:30:03 2019.
