 Gaussian 16, Revision A.03,
 Gaussian 16:  EM64L-G16RevA.03 25-Dec-2016

 ----------------------------------------------------------------------
 #p m062x/6-311+g(2df,2p) opt=(calcfc,verytight,gdiis,maxcycles=900) fr
 eq iop(7/33=1,2/16=3)
 ----------------------------------------------------------------------

 ------------------------------
 Gaussian input prepared by ASE
 ------------------------------
 Symbolic Z-matrix:
 Charge =  0 Multiplicity = 2

 SCF Done:  E(UM062X) =  -306.991759464     A.U. after   15 cycles
 SCF Done:  E(UM062X) =  -307.005360797     A.U. after   14 cycles
 SCF Done:  E(UM062X) =  -307.006909343     A.U. after   13 cycles
 SCF Done:  E(UM062X) =  -307.007251280     A.U. after   13 cycles
 SCF Done:  E(UM062X) =  -307.007363459     A.U. after   11 cycles
 SCF Done:  E(UM062X) =  -307.007406585     A.U. after   11 cycles
 SCF Done:  E(UM062X) =  -307.007423961     A.U. after   11 cycles
 SCF Done:  E(UM062X) =  -307.007424579     A.U. after    8 cycles
 SCF Done:  E(UM062X) =  -307.007425924     A.U. after    9 cycles
 SCF Done:  E(UM062X) =  -307.007426686     A.U. after   10 cycles
 SCF Done:  E(UM062X) =  -307.007426721     A.U. after    7 cycles
 SCF Done:  E(UM062X) =  -307.007426725     A.U. after    6 cycles
 SCF Done:  E(UM062X) =  -307.007426727     A.U. after    6 cycles
 SCF Done:  E(UM062X) =  -307.007426727     A.U. after    5 cycles
 SCF Done:  E(UM062X) =  -307.007426727     A.U. after    3 cycles
 SCF Done:  E(UM062X) =  -307.007426727     A.U. after    3 cycles
 SCF Done:  E(UM062X) =  -307.007426727     A.U. after    3 cycles
 SCF Done:  E(UM062X) =  -307.007426727     A.U. after    3 cycles
 SCF Done:  E(UM062X) =  -307.007426727     A.U. after    2 cycles
 Optimization completed.
    -- Stationary point found.
 Normal termination of Gaussian 16 at Sun Mar 10 21:53:08 2019.

 ----------------------------------------------------------------------
 #P Geom=AllCheck Guess=TCheck SCRF=Check Test GenChk UM062X/6-311+G(2d
 f,2p) Freq
 ----------------------------------------------------------------------

 Structure from the checkpoint file:  "/scratch/underkoffler.c/gaussian_scratch/Gau-42558.chk"
 ------------------------------
 Gaussian input prepared by ASE
 ------------------------------
 Charge =  0 Multiplicity = 2

                         Standard orientation:
 ---------------------------------------------------------------------
 Center     Atomic      Atomic             Coordinates (Angstroms)
 Number     Number       Type             X           Y           Z
 ---------------------------------------------------------------------
      1          8           0        0.826605   -0.678393    0.261992
      2          8           0        0.592844    1.485869   -0.293588
      3          6           0       -1.316412    0.266281    0.537692
      4          6           0       -2.050327   -0.653217   -0.441850
      5          6           0        0.112399    0.474185    0.124393
      6          6           0        2.140788   -0.665106   -0.084360
      7          1           0       -1.325461   -0.171414    1.536269
      8          1           0       -1.783549    1.246677    0.580128
      9          1           0       -3.086834   -0.777627   -0.135042
     10          1           0       -1.581647   -1.634672   -0.475249
     11          1           0       -2.041525   -0.232280   -1.446361
     12          1           0        2.532753    0.205975   -0.578203
     13          1           0        2.611979   -1.629334   -0.044022
 ---------------------------------------------------------------------

 SCF Done:  E(UM062X) =  -307.007426727     A.U. after    1 cycles

 The electronic state is 2-A.
 Alpha  occ. eigenvalues --  -19.69276 -19.62380 -10.67821 -10.59698 -10.55721
 Alpha  occ. eigenvalues --  -10.54230  -1.25817  -1.16253  -0.90597  -0.82011
 Alpha  occ. eigenvalues --   -0.74107  -0.66001  -0.60100  -0.58356  -0.56953
 Alpha  occ. eigenvalues --   -0.52685  -0.51461  -0.47571  -0.45461  -0.44472
 Alpha  occ. eigenvalues --   -0.42919  -0.42629  -0.36353  -0.25600
 Alpha virt. eigenvalues --    0.01065   0.02735   0.03206   0.04086   0.04626
 Alpha virt. eigenvalues --    0.05213   0.06287   0.07335   0.08034   0.08201
 Alpha virt. eigenvalues --    0.09939   0.10682   0.11341   0.12764   0.12927

  Beta  occ. eigenvalues --  -19.69117 -19.62325 -10.67810 -10.58971 -10.55724
  Beta  occ. eigenvalues --  -10.54225  -1.25177  -1.15863  -0.90307  -0.80227
  Beta  occ. eigenvalues --   -0.73473  -0.64463  -0.59589  -0.57881  -0.55429
  Beta  occ. eigenvalues --   -0.52288  -0.50971  -0.46932  -0.44792  -0.44104
  Beta  occ. eigenvalues --   -0.42857  -0.41498  -0.36219
  Beta virt. eigenvalues --   -0.03221   0.01074   0.02471   0.03294   0.04124
  Beta virt. eigenvalues --    0.05104   0.05455   0.06294   0.07891   0.08248
  Beta virt. eigenvalues --    0.08516   0.09365   0.10704   0.12179   0.12664

 Mulliken charges and spin densities:
               1          2
     1  O   -0.089003  -0.023227
     2  O   -0.386861   0.039586
     3  C   -0.369011  -0.007246
     4  C   -0.389188   0.005899
     5  C    0.323556   0.032310
     6  C   -0.258395   1.025146
     7  H    0.175888   0.000958
     8  H    0.170284  -0.000257
     9  H    0.139720   0.000606
    10  H    0.153522  -0.000724
    11  H    0.152250  -0.000648
    12  H    0.205196  -0.036601
    13  H    0.172041  -0.035801
 Sum of Mulliken charges =  -0.00000   1.00000

 Dipole moment (field-independent basis, Debye):
    X=             -1.1394    Y=             -1.7725    Z=              0.3947  Tot=              2.1438
 Quadrupole moment (field-independent basis, Debye-Ang):
   XX=            -32.3057   YY=            -40.1514   ZZ=            -36.6763
   XY=             -2.5439   XZ=             -1.1470   YZ=              1.2021

  Exact polarizability:  66.734  -2.720  55.133  -1.131  -0.521  45.606
 Approx polarizability:  65.175  -1.075  66.897  -1.910  -3.221  54.857

                      1                      2                      3
                      A                      A                      A
 Frequencies --     36.5133               139.3522               218.6659
 Red. masses --      2.9139                 2.7744                 1.1360
 Frc consts  --      0.0023                 0.0317                 0.0320
 IR Inten    --      0.7033                 2.4005                 0.2214

                      4                      5                      6
                      A                      A                      A
 Frequencies --    243.4448               293.3327               298.3201
 Red. masses --      1.8188                 1.2241                 1.6739
 Frc consts  --      0.0635                 0.0621                 0.0878
 IR Inten    --      8.1608                59.1684                 2.7827

                      7                      8                      9
                      A                      A                      A
 Frequencies --    340.1764               450.3377               628.2425
 Red. masses --      3.0542                 3.1527                 4.1990
 Frc consts  --      0.2082                 0.3767                 0.9765
 IR Inten    --      6.4427                 5.7799                 6.1339

                     10                     11                     12
                      A                      A                      A
 Frequencies --    743.6136               802.2328               851.7280
 Red. masses --      3.1417                 1.4631                 2.7259
 Frc consts  --      1.0236                 0.5548                 1.1651
 IR Inten    --      4.6676                 2.9732                19.3258

                     13                     14                     15
                      A                      A                      A
 Frequencies --    986.0485              1072.8593              1102.9688
 Red. masses --      1.8860                 2.1691                 1.7608
 Frc consts  --      1.0804                 1.4710                 1.2620
 IR Inten    --     33.7494                27.2498                 4.7181

                     16                     17                     18
                      A                      A                      A
 Frequencies --   1197.8279              1212.6575              1264.3444
 Red. masses --      1.8872                 2.2332                 2.2479
 Frc consts  --      1.5954                 1.9349                 2.1172
 IR Inten    --     29.6149                 4.7741               204.9630

                     19                     20                     21
                      A                      A                      A
 Frequencies --   1313.1280              1360.0352              1416.0616
 Red. masses --      1.5986                 1.7669                 1.2256
 Frc consts  --      1.6241                 1.9256                 1.4480
 IR Inten    --    162.2803                54.2667                 5.3931

                     22                     23                     24
                      A                      A                      A
 Frequencies --   1461.6246              1485.3201              1506.9911
 Red. masses --      1.1684                 1.0849                 1.0376
 Frc consts  --      1.4706                 1.4102                 1.3883
 IR Inten    --      3.8265                 5.3122                 7.9232

                     25                     26                     27
                      A                      A                      A
 Frequencies --   1514.9376              1865.2333              3075.9223
 Red. masses --      1.0704                11.5478                 1.0357
 Frc consts  --      1.4474                23.6709                 5.7733
 IR Inten    --     14.6802               299.5072                13.8062

                     28                     29                     30
                      A                      A                      A
 Frequencies --   3091.5249              3143.6926              3152.5583
 Red. masses --      1.0624                 1.1012                 1.1038
 Frc consts  --      5.9826                 6.4121                 6.4636
 IR Inten    --      7.9614                 5.0545                10.8225

                     31                     32                     33
                      A                      A                      A
 Frequencies --   3165.6720              3209.4061              3360.9549
 Red. masses --      1.1028                 1.0424                 1.1299
 Frc consts  --      6.5114                 6.3261                 7.5197
 IR Inten    --     14.6110                 7.5153                 0.4397

 - Thermochemistry -
 -------------------
 Temperature   298.150 Kelvin.  Pressure   1.00000 Atm.
 Atom     1 has atomic number  8 and mass  15.99491

 Molecular mass:    87.04460 amu.
 Principal axes and moments of inertia in atomic units:
                           1         2         3
     Eigenvalues --   279.21545 682.96344 862.81312
           X            1.00000  -0.00082  -0.00305
           Y            0.00092   0.99947   0.03246
           Z            0.00302  -0.03246   0.99947
 This molecule is an asymmetric top.
 Rotational symmetry number  1.
 Rotational temperatures (Kelvin)      0.31020     0.12682     0.10039
 Rotational constants (GHZ):           6.46362     2.64252     2.09169
 Zero-point vibrational energy     275175.4 (Joules/Mol)
                                   65.76849 (Kcal/Mol)
 Warning -- explicit consideration of   8 degrees of freedom as
           vibrations may cause significant error
 Vibrational temperatures:     52.53   200.50   314.61   350.26   422.04
          (Kelvin)            429.22   489.44   647.94   903.90  1069.89
                             1154.23  1225.45  1418.70  1543.61  1586.93
                             1723.41  1744.74  1819.11  1889.30  1956.79
                             2037.40  2102.95  2137.04  2168.22  2179.66
                             2683.65  4425.57  4448.01  4523.07  4535.83
                             4554.70  4617.62  4835.66

 Zero-point correction=                           0.104809 (Hartree/Particle)
 Thermal correction to Energy=                    0.112250
 Thermal correction to Enthalpy=                  0.113194
 Thermal correction to Gibbs Free Energy=         0.072492
 Sum of electronic and zero-point Energies=           -306.902618
 Sum of electronic and thermal Energies=              -306.895177
 Sum of electronic and thermal Enthalpies=            -306.894233
 Sum of electronic and thermal Free Energies=         -306.934934

                     E (Thermal)             CV                S
                      KCal/Mol        Cal/Mol-Kelvin    Cal/Mol-Kelvin
 Total                   70.438             24.935             85.664
 Electronic               0.000              0.000              1.377
 Translational            0.889              2.981             39.304
 Rotational               0.889              2.981             26.600
 Vibrational             68.660             18.974             18.382
 Vibration     1          0.594              1.982              5.440
 Vibration     2          0.615              1.914              2.813
 Vibration     3          0.646              1.813              1.970
 Vibration     4          0.659              1.774              1.778
 Vibration     5          0.688              1.686              1.455
 Vibration     6          0.691              1.677              1.426
 Vibration     7          0.720              1.595              1.211
 Vibration     8          0.809              1.360              0.795

                           ! Non-Optimized Parameters !
 Normal termination of Gaussian 16 at Sun Mar 10 22:02:27 2019.
