 Gaussian 16, Revision A.03,
 Gaussian 16:  EM64L-G16RevA.03 25-Dec-2016

 ----------------------------------------------
 #p m062x/6-311+g(2df,2p) Opt=(CalcFC,ModRedun)
 ----------------------------------------------

 ----------------------------------------
 Gaussian Input Prepared from Scan Object
 ----------------------------------------
 Symbolic Z-matrix:
 Charge =  0 Multiplicity = 2

 SCF Done:  E(UM062X) =  -307.007426727     A.U. after   15 cycles

  Exact polarizability:   0.000   0.000   0.000   0.000   0.000   0.000
 Approx polarizability:  65.175  -1.075  66.897  -1.910  -3.221  54.857

 Optimization completed.
    -- Stationary point found.
 SCF Done:  E(UM062X) =  -307.006084127     A.U. after   11 cycles
 SCF Done:  E(UM062X) =  -307.007370536     A.U. after   11 cycles
 SCF Done:  E(UM062X) =  -307.007388419     A.U. after   10 cycles
 Optimization completed.
 SCF Done:  E(UM062X) =  -307.005984594     A.U. after   12 cycles
 SCF Done:  E(UM062X) =  -307.007278672     A.U. after   11 cycles
 SCF Done:  E(UM062X) =  -307.007295690     A.U. after   10 cycles
 SCF Done:  E(UM062X) =  -307.007295743     A.U. after    7 cycles
 SCF Done:  E(UM062X) =  -307.005854959     A.U. after   12 cycles
 SCF Done:  E(UM062X) =  -307.007150290     A.U. after   11 cycles
 SCF Done:  E(UM062X) =  -307.007289051     A.U. after   12 cycles
 SCF Done:  E(UM062X) =  -307.007304736     A.U. after   10 cycles
 SCF Done:  E(UM062X) =  -307.007304974     A.U. after    8 cycles
 SCF Done:  E(UM062X) =  -307.006062188     A.U. after   11 cycles
 SCF Done:  E(UM062X) =  -307.007375240     A.U. after   12 cycles
 SCF Done:  E(UM062X) =  -307.007391322     A.U. after   10 cycles
 SCF Done:  E(UM062X) =  -307.007391624     A.U. after    8 cycles
    -- Stationary point found.
 SCF Done:  E(UM062X) =  -307.006105789     A.U. after   11 cycles
 SCF Done:  E(UM062X) =  -307.007407655     A.U. after   12 cycles
 SCF Done:  E(UM062X) =  -307.007426663     A.U. after   10 cycles
 Optimization completed.
    -- Stationary point found.

                         Standard orientation:
 ---------------------------------------------------------------------
 Center     Atomic      Atomic             Coordinates (Angstroms)
 Number     Number       Type             X           Y           Z
 ---------------------------------------------------------------------
      1          8           0        0.826879   -0.678380    0.261947
      2          8           0        0.592675    1.485890   -0.293421
      3          6           0       -1.316294    0.265790    0.537945
      4          6           0       -2.050720   -0.652958   -0.441977
      5          6           0        0.112386    0.474046    0.124315
      6          6           0        2.140972   -0.664973   -0.084633
      7          1           0       -1.324967   -0.172116    1.536371
      8          1           0       -1.783223    1.246337    0.580769
      9          1           0       -3.087031   -0.777512   -0.134577
     10          1           0       -1.582073   -1.634370   -0.476425
     11          1           0       -2.042564   -0.231009   -1.446055
     12          1           0        2.532862    0.206179   -0.578403
     13          1           0        2.612495   -1.629020   -0.043797
 ---------------------------------------------------------------------

 The electronic state is 2-A.
 Alpha  occ. eigenvalues --  -19.69276 -19.62380 -10.67820 -10.59697 -10.55721
 Alpha  occ. eigenvalues --  -10.54231  -1.25816  -1.16254  -0.90596  -0.82012
 Alpha  occ. eigenvalues --   -0.74108  -0.66000  -0.60098  -0.58357  -0.56953
 Alpha  occ. eigenvalues --   -0.52686  -0.51461  -0.47571  -0.45461  -0.44470
 Alpha  occ. eigenvalues --   -0.42921  -0.42630  -0.36354  -0.25598
 Alpha virt. eigenvalues --    0.01064   0.02735   0.03206   0.04086   0.04627
 Alpha virt. eigenvalues --    0.05212   0.06287   0.07335   0.08035   0.08200
 Alpha virt. eigenvalues --    0.09938   0.10682   0.11341   0.12763   0.12927

  Beta  occ. eigenvalues --  -19.69116 -19.62325 -10.67810 -10.58970 -10.55724
  Beta  occ. eigenvalues --  -10.54226  -1.25176  -1.15864  -0.90306  -0.80228
  Beta  occ. eigenvalues --   -0.73473  -0.64462  -0.59587  -0.57881  -0.55428
  Beta  occ. eigenvalues --   -0.52289  -0.50971  -0.46932  -0.44791  -0.44103
  Beta  occ. eigenvalues --   -0.42859  -0.41498  -0.36219
  Beta virt. eigenvalues --   -0.03220   0.01074   0.02471   0.03295   0.04124
  Beta virt. eigenvalues --    0.05105   0.05454   0.06294   0.07891   0.08248
  Beta virt. eigenvalues --    0.08516   0.09364   0.10704   0.12179   0.12664

 Mulliken charges and spin densities:
               1          2
     1  O   -0.088988  -0.023222
     2  O   -0.386862   0.039603
     3  C   -0.369118  -0.007242
     4  C   -0.389077   0.005894
     5  C    0.323591   0.032313
     6  C   -0.258445   1.025156
     7  H    0.175876   0.000956
     8  H    0.170305  -0.000257
     9  H    0.139710   0.000604
    10  H    0.153486  -0.000723
    11  H    0.152256  -0.000646
    12  H    0.205205  -0.036617
    13  H    0.172063  -0.035818
 Sum of Mulliken charges =  -0.00000   1.00000

 Dipole moment (field-independent basis, Debye):
    X=             -1.1392    Y=             -1.7723    Z=              0.3948  Tot=              2.1436
 Quadrupole moment (field-independent basis, Debye-Ang):
   XX=            -32.3044   YY=            -40.1524   ZZ=            -36.6756
   XY=             -2.5428   XZ=             -1.1459   YZ=              1.2002

 Normal termination of Gaussian 16 at Mon Mar 11 01:39:35 2019.
