 Gaussian 16, Revision A.03,
 Gaussian 16:  EM64L-G16RevA.03 25-Dec-2016

 ----------------------------------------------------------------------
 #p m062x/6-311+g(2df,2p) opt=(calcfc,verytight,gdiis,maxcycles=900) fr
 eq iop(7/33=1,2/16=3)
 ----------------------------------------------------------------------

 ------------------------------
 Gaussian input prepared by ASE
 ------------------------------
 Symbolic Z-matrix:
 Charge =  0 Multiplicity = 2

 SCF Done:  E(UM062X) =  -193.633751038     A.U. after   14 cycles
 SCF Done:  E(UM062X) =  -193.648656734     A.U. after   13 cycles
 SCF Done:  E(UM062X) =  -193.650748181     A.U. after   14 cycles
 SCF Done:  E(UM062X) =  -193.649411195     A.U. after   15 cycles
 SCF Done:  E(UM062X) =  -193.649410138     A.U. after   14 cycles
 SCF Done:  E(UM062X) =  -193.652214233     A.U. after   13 cycles
 SCF Done:  E(UM062X) =  -193.652683352     A.U. after   12 cycles
 SCF Done:  E(UM062X) =  -193.652756430     A.U. after   10 cycles
 SCF Done:  E(UM062X) =  -193.652782996     A.U. after   10 cycles
 SCF Done:  E(UM062X) =  -193.652798475     A.U. after   11 cycles
 SCF Done:  E(UM062X) =  -193.652865698     A.U. after    7 cycles
 SCF Done:  E(UM062X) =  -193.652866136     A.U. after    9 cycles
 SCF Done:  E(UM062X) =  -193.652866425     A.U. after    9 cycles
 SCF Done:  E(UM062X) =  -193.652866455     A.U. after    7 cycles
 SCF Done:  E(UM062X) =  -193.652866455     A.U. after    4 cycles
 SCF Done:  E(UM062X) =  -193.652866455     A.U. after    3 cycles
 SCF Done:  E(UM062X) =  -193.652866455     A.U. after    5 cycles
 SCF Done:  E(UM062X) =  -193.652866455     A.U. after    3 cycles
 SCF Done:  E(UM062X) =  -193.652866455     A.U. after    2 cycles
 Optimization completed.
    -- Stationary point found.
 Normal termination of Gaussian 16 at Sun Mar 10 20:21:37 2019.

 ----------------------------------------------------------------------
 #P Geom=AllCheck Guess=TCheck SCRF=Check Test GenChk UM062X/6-311+G(2d
 f,2p) Freq
 ----------------------------------------------------------------------

 Structure from the checkpoint file:  "/scratch/underkoffler.c/gaussian_scratch/Gau-36377.chk"
 ------------------------------
 Gaussian input prepared by ASE
 ------------------------------
 Charge =  0 Multiplicity = 2

                         Standard orientation:
 ---------------------------------------------------------------------
 Center     Atomic      Atomic             Coordinates (Angstroms)
 Number     Number       Type             X           Y           Z
 ---------------------------------------------------------------------
      1          8           0       -0.716470   -0.483324   -0.365337
      2          6           0        0.537418   -0.600793    0.290560
      3          6           0        1.494626    0.495847   -0.135578
      4          6           0       -1.559590    0.430000    0.153234
      5          1           0        0.923665   -1.579925    0.013983
      6          1           0        0.377184   -0.589873    1.372391
      7          1           0        1.648328    0.462997   -1.213029
      8          1           0        1.104934    1.478756    0.126740
      9          1           0        2.457270    0.366997    0.358325
     10          1           0       -1.176709    1.157432    0.855535
     11          1           0       -2.437633    0.619887   -0.440538
 ---------------------------------------------------------------------

 SCF Done:  E(UM062X) =  -193.652866455     A.U. after    1 cycles

 The electronic state is 2-A.
 Alpha  occ. eigenvalues --  -19.65463 -10.59212 -10.57418 -10.53251  -1.19432
 Alpha  occ. eigenvalues --   -0.87072  -0.77414  -0.68973  -0.58495  -0.57651
 Alpha  occ. eigenvalues --   -0.52683  -0.49295  -0.46423  -0.43566  -0.41026
 Alpha  occ. eigenvalues --   -0.39819  -0.22610
 Alpha virt. eigenvalues --    0.01820   0.03628   0.04090   0.04266   0.06802
 Alpha virt. eigenvalues --    0.07264   0.07826   0.08615   0.08893   0.11665
 Alpha virt. eigenvalues --    0.12258   0.14079   0.16806   0.19426   0.19580

  Beta  occ. eigenvalues --  -19.65006 -10.59222 -10.56731 -10.53242  -1.17995
  Beta  occ. eigenvalues --   -0.86684  -0.75782  -0.67443  -0.57824  -0.56510
  Beta  occ. eigenvalues --   -0.50669  -0.48747  -0.45906  -0.43143  -0.39414
  Beta  occ. eigenvalues --   -0.38063
  Beta virt. eigenvalues --   -0.00674   0.01634   0.03557   0.03973   0.04321
  Beta virt. eigenvalues --    0.06813   0.07225   0.07941   0.08576   0.09071
  Beta virt. eigenvalues --    0.10929   0.12460   0.14002   0.16873   0.19419

 Mulliken charges and spin densities:
               1          2
     1  O   -0.079897   0.067642
     2  C   -0.255080   0.020818
     3  C   -0.333829   0.003808
     4  C   -0.334559   0.986140
     5  H    0.146934   0.000648
     6  H    0.150625   0.001829
     7  H    0.145644  -0.000357
     8  H    0.129466  -0.003034
     9  H    0.127536  -0.001004
    10  H    0.143783  -0.040769
    11  H    0.159378  -0.035720
 Sum of Mulliken charges =  -0.00000   1.00000

 Dipole moment (field-independent basis, Debye):
    X=              1.3731    Y=              0.5452    Z=              0.6217  Tot=              1.6029
 Quadrupole moment (field-independent basis, Debye-Ang):
   XX=            -25.9167   YY=            -26.2336   ZZ=            -26.8567
   XY=             -1.9355   XZ=              0.6498   YZ=              0.0399

  Exact polarizability:  50.522  -2.212  40.617  -0.934  -1.132  39.085
 Approx polarizability:  49.503  -2.284  45.944   0.123   0.338  45.809

                      1                      2                      3
                      A                      A                      A
 Frequencies --    133.3540               215.1164               234.4038
 Red. masses --      2.1378                 1.1935                 1.1197
 Frc consts  --      0.0224                 0.0325                 0.0362
 IR Inten    --      2.2547                 3.3814                 0.4240

                      4                      5                      6
                      A                      A                      A
 Frequencies --    398.2123               461.6450               481.3165
 Red. masses --      2.6752                 1.2719                 2.1740
 Frc consts  --      0.2499                 0.1597                 0.2967
 IR Inten    --      1.2822                52.3541                10.7155

                      7                      8                      9
                      A                      A                      A
 Frequencies --    809.8090               879.1372              1044.1263
 Red. masses --      1.0998                 2.2038                 2.7444
 Frc consts  --      0.4249                 1.0035                 1.7628
 IR Inten    --      1.3050                 7.1564                25.6663

                     10                     11                     12
                      A                      A                      A
 Frequencies --   1115.1058              1151.6995              1235.6294
 Red. masses --      2.0190                 1.4089                 1.6546
 Frc consts  --      1.4792                 1.1011                 1.4884
 IR Inten    --      7.9713                 4.9714                12.4212

                     13                     14                     15
                      A                      A                      A
 Frequencies --   1297.0693              1351.3208              1399.7536
 Red. masses --      2.4439                 1.4397                 1.2309
 Frc consts  --      2.4224                 1.5490                 1.4210
 IR Inten    --    149.3488                83.7174                 1.9226

                     16                     17                     18
                      A                      A                      A
 Frequencies --   1420.9498              1484.7095              1492.9637
 Red. masses --      1.3096                 1.1321                 1.0650
 Frc consts  --      1.5580                 1.4704                 1.3987
 IR Inten    --     17.5618                 8.4398                 3.8489

                     19                     20                     21
                      A                      A                      A
 Frequencies --   1504.0421              1527.6999              3051.3942
 Red. masses --      1.0698                 1.1325                 1.0677
 Frc consts  --      1.4259                 1.5573                 5.8570
 IR Inten    --      0.8635                 7.4581                35.9532

                     22                     23                     24
                      A                      A                      A
 Frequencies --   3072.0876              3123.8626              3146.9975
 Red. masses --      1.0348                 1.0978                 1.1013
 Frc consts  --      5.7539                 6.3116                 6.4260
 IR Inten    --      9.8874                 6.8614                20.6341

                     25                     26                     27
                      A                      A                      A
 Frequencies --   3152.9772              3160.3234              3301.0248
 Red. masses --      1.1018                 1.0496                 1.1233
 Frc consts  --      6.4532                 6.1763                 7.2119
 IR Inten    --     15.7248                23.4854                 5.9798

 - Thermochemistry -
 -------------------
 Temperature   298.150 Kelvin.  Pressure   1.00000 Atm.
 Atom     1 has atomic number  8 and mass  15.99491

 Molecular mass:    59.04969 amu.
 Principal axes and moments of inertia in atomic units:
                           1         2         3
     Eigenvalues --   101.43646 335.95333 379.66770
           X            0.99984  -0.01767  -0.00379
           Y            0.01756   0.99952  -0.02569
           Z            0.00425   0.02562   0.99966
 This molecule is an asymmetric top.
 Rotational symmetry number  1.
 Rotational temperatures (Kelvin)      0.85387     0.25782     0.22813
 Rotational constants (GHZ):          17.79184     5.37200     4.75348
 Zero-point vibrational energy     249102.8 (Joules/Mol)
                                   59.53699 (Kcal/Mol)
 Warning -- explicit consideration of   6 degrees of freedom as
           vibrations may cause significant error
 Vibrational temperatures:    191.87   309.50   337.25   572.94   664.20
          (Kelvin)            692.51  1165.13  1264.88  1502.26  1604.39
                             1657.04  1777.80  1866.19  1944.25  2013.93
                             2044.43  2136.17  2148.04  2163.98  2198.02
                             4390.28  4420.05  4494.54  4527.83  4536.43
                             4547.00  4749.44

 Zero-point correction=                           0.094878 (Hartree/Particle)
 Thermal correction to Energy=                    0.100511
 Thermal correction to Enthalpy=                  0.101455
 Thermal correction to Gibbs Free Energy=         0.066541
 Sum of electronic and zero-point Energies=           -193.557988
 Sum of electronic and thermal Energies=              -193.552356
 Sum of electronic and thermal Enthalpies=            -193.551411
 Sum of electronic and thermal Free Energies=         -193.586326

                     E (Thermal)             CV                S
                      KCal/Mol        Cal/Mol-Kelvin    Cal/Mol-Kelvin
 Total                   63.071             18.549             73.483
 Electronic               0.000              0.000              1.377
 Translational            0.889              2.981             38.148
 Rotational               0.889              2.981             24.074
 Vibrational             61.294             12.588              9.884
 Vibration     1          0.613              1.920              2.897
 Vibration     2          0.645              1.818              2.000
 Vibration     3          0.654              1.788              1.845
 Vibration     4          0.764              1.474              0.969
 Vibration     5          0.819              1.335              0.761
 Vibration     6          0.838              1.291              0.707

                           ! Non-Optimized Parameters !
 Normal termination of Gaussian 16 at Sun Mar 10 20:26:02 2019.
