 Gaussian 16, Revision A.03,
 Gaussian 16:  EM64L-G16RevA.03 25-Dec-2016

 ----------------------------------------------
 #p m062x/6-311+g(2df,2p) Opt=(CalcFC,ModRedun)
 ----------------------------------------------

 ----------------------------------------
 Gaussian Input Prepared from Scan Object
 ----------------------------------------
 Symbolic Z-matrix:
 Charge =  0 Multiplicity = 2

 SCF Done:  E(UM062X) =  -193.652866455     A.U. after   14 cycles

  Exact polarizability:   0.000   0.000   0.000   0.000   0.000   0.000
 Approx polarizability:  49.503  -2.284  45.944   0.123   0.338  45.809

 Optimization completed.
    -- Stationary point found.
 SCF Done:  E(UM062X) =  -193.651804030     A.U. after   12 cycles
 SCF Done:  E(UM062X) =  -193.652600644     A.U. after   11 cycles
 SCF Done:  E(UM062X) =  -193.652608575     A.U. after   10 cycles
 SCF Done:  E(UM062X) =  -193.652608778     A.U. after    8 cycles
 SCF Done:  E(UM062X) =  -193.652608793     A.U. after    7 cycles
 Optimization completed.
 SCF Done:  E(UM062X) =  -193.651045976     A.U. after   12 cycles
 SCF Done:  E(UM062X) =  -193.651872630     A.U. after   11 cycles
 SCF Done:  E(UM062X) =  -193.651887314     A.U. after   10 cycles
 SCF Done:  E(UM062X) =  -193.651889144     A.U. after   10 cycles
 SCF Done:  E(UM062X) =  -193.651130022     A.U. after   12 cycles
 SCF Done:  E(UM062X) =  -193.652158699     A.U. after   11 cycles
 SCF Done:  E(UM062X) =  -193.652162010     A.U. after    9 cycles
 SCF Done:  E(UM062X) =  -193.651700938     A.U. after   12 cycles
 SCF Done:  E(UM062X) =  -193.652648613     A.U. after   11 cycles
 SCF Done:  E(UM062X) =  -193.652651379     A.U. after   10 cycles
    -- Stationary point found.
 SCF Done:  E(UM062X) =  -193.652012076     A.U. after   12 cycles
 SCF Done:  E(UM062X) =  -193.652863062     A.U. after   11 cycles
 SCF Done:  E(UM062X) =  -193.652866323     A.U. after   10 cycles
 SCF Done:  E(UM062X) =  -193.652866451     A.U. after    7 cycles
 Optimization completed.
    -- Stationary point found.

                         Standard orientation:
 ---------------------------------------------------------------------
 Center     Atomic      Atomic             Coordinates (Angstroms)
 Number     Number       Type             X           Y           Z
 ---------------------------------------------------------------------
      1          8           0       -0.716473   -0.483297   -0.365326
      2          6           0        0.537440   -0.600812    0.290529
      3          6           0        1.494622    0.495864   -0.135558
      4          6           0       -1.559659    0.429935    0.153308
      5          1           0        0.923723   -1.579892    0.013819
      6          1           0        0.377283   -0.590020    1.372372
      7          1           0        1.648230    0.463131   -1.213028
      8          1           0        1.105026    1.478766    0.126911
      9          1           0        2.457308    0.366902    0.358235
     10          1           0       -1.176638    1.157631    0.855262
     11          1           0       -2.437568    0.619933   -0.440641
 ---------------------------------------------------------------------

 The electronic state is 2-A.
 Alpha  occ. eigenvalues --  -19.65462 -10.59212 -10.57419 -10.53251  -1.19431
 Alpha  occ. eigenvalues --   -0.87072  -0.77414  -0.68972  -0.58495  -0.57652
 Alpha  occ. eigenvalues --   -0.52682  -0.49295  -0.46423  -0.43566  -0.41026
 Alpha  occ. eigenvalues --   -0.39818  -0.22612
 Alpha virt. eigenvalues --    0.01819   0.03628   0.04090   0.04266   0.06802
 Alpha virt. eigenvalues --    0.07264   0.07826   0.08615   0.08893   0.11664
 Alpha virt. eigenvalues --    0.12258   0.14079   0.16807   0.19427   0.19580

  Beta  occ. eigenvalues --  -19.65006 -10.59222 -10.56732 -10.53242  -1.17994
  Beta  occ. eigenvalues --   -0.86684  -0.75782  -0.67443  -0.57824  -0.56511
  Beta  occ. eigenvalues --   -0.50668  -0.48747  -0.45906  -0.43143  -0.39413
  Beta  occ. eigenvalues --   -0.38063
  Beta virt. eigenvalues --   -0.00675   0.01634   0.03557   0.03974   0.04321
  Beta virt. eigenvalues --    0.06813   0.07225   0.07941   0.08576   0.09071
  Beta virt. eigenvalues --    0.10929   0.12459   0.14002   0.16873   0.19420

 Mulliken charges and spin densities:
               1          2
     1  O   -0.079896   0.067650
     2  C   -0.255062   0.020814
     3  C   -0.333858   0.003803
     4  C   -0.334524   0.986084
     5  H    0.146938   0.000647
     6  H    0.150637   0.001826
     7  H    0.145646  -0.000357
     8  H    0.129466  -0.003030
     9  H    0.127538  -0.001004
    10  H    0.143758  -0.040736
    11  H    0.159358  -0.035698
 Sum of Mulliken charges =  -0.00000   1.00000

 Dipole moment (field-independent basis, Debye):
    X=              1.3734    Y=              0.5454    Z=              0.6212  Tot=              1.6030
 Quadrupole moment (field-independent basis, Debye-Ang):
   XX=            -25.9175   YY=            -26.2328   ZZ=            -26.8571
   XY=             -1.9359   XZ=              0.6505   YZ=              0.0395

 Normal termination of Gaussian 16 at Mon Mar 11 01:11:15 2019.
