 Gaussian 16, Revision A.03,
 Gaussian 16:  EM64L-G16RevA.03 25-Dec-2016

 ----------------------------------------------
 #p m062x/6-311+g(2df,2p) Opt=(CalcFC,ModRedun)
 ----------------------------------------------

 ----------------------------------------
 Gaussian Input Prepared from Scan Object
 ----------------------------------------
 Symbolic Z-matrix:
 Charge =  0 Multiplicity = 2

 SCF Done:  E(UM062X) =  -193.652866455     A.U. after   14 cycles

  Exact polarizability:   0.000   0.000   0.000   0.000   0.000   0.000
 Approx polarizability:  49.503  -2.284  45.944   0.123   0.338  45.809

 Optimization completed.
    -- Stationary point found.
 SCF Done:  E(UM062X) =  -193.652642690     A.U. after   12 cycles
 SCF Done:  E(UM062X) =  -193.652669265     A.U. after   11 cycles
 SCF Done:  E(UM062X) =  -193.652669364     A.U. after    9 cycles
 SCF Done:  E(UM062X) =  -193.652669375     A.U. after    7 cycles
 Optimization completed.
 SCF Done:  E(UM062X) =  -193.652080496     A.U. after   12 cycles
 SCF Done:  E(UM062X) =  -193.652119739     A.U. after   11 cycles
 SCF Done:  E(UM062X) =  -193.652134976     A.U. after   11 cycles
 SCF Done:  E(UM062X) =  -193.652724344     A.U. after   13 cycles
 SCF Done:  E(UM062X) =  -193.652534994     A.U. after   13 cycles
 SCF Done:  E(UM062X) =  -193.651311749     A.U. after   10 cycles
 SCF Done:  E(UM062X) =  -193.652095292     A.U. after   12 cycles
 SCF Done:  E(UM062X) =  -193.652140674     A.U. after   10 cycles
 SCF Done:  E(UM062X) =  -193.652144027     A.U. after   10 cycles
 SCF Done:  E(UM062X) =  -193.652636681     A.U. after   12 cycles
 SCF Done:  E(UM062X) =  -193.652677427     A.U. after   11 cycles
 SCF Done:  E(UM062X) =  -193.652679399     A.U. after   10 cycles
    -- Stationary point found.
 SCF Done:  E(UM062X) =  -193.652831567     A.U. after   12 cycles
 SCF Done:  E(UM062X) =  -193.652865383     A.U. after   11 cycles
 SCF Done:  E(UM062X) =  -193.652866444     A.U. after   10 cycles
 Optimization completed.
    -- Stationary point found.

                         Standard orientation:
 ---------------------------------------------------------------------
 Center     Atomic      Atomic             Coordinates (Angstroms)
 Number     Number       Type             X           Y           Z
 ---------------------------------------------------------------------
      1          8           0       -0.716421   -0.483288   -0.365427
      2          6           0        0.537360   -0.600750    0.290604
      3          6           0        1.494637    0.495819   -0.135569
      4          6           0       -1.559555    0.429968    0.153190
      5          1           0        0.923597   -1.579930    0.014187
      6          1           0        0.377021   -0.589722    1.372419
      7          1           0        1.648639    0.462684   -1.212969
      8          1           0        1.104760    1.478764    0.126330
      9          1           0        2.457154    0.367171    0.358634
     10          1           0       -1.176883    1.157048    0.855906
     11          1           0       -2.437576    0.620067   -0.440436
 ---------------------------------------------------------------------

 The electronic state is 2-A.
 Alpha  occ. eigenvalues --  -19.65463 -10.59212 -10.57417 -10.53251  -1.19434
 Alpha  occ. eigenvalues --   -0.87072  -0.77414  -0.68974  -0.58496  -0.57652
 Alpha  occ. eigenvalues --   -0.52685  -0.49295  -0.46423  -0.43566  -0.41026
 Alpha  occ. eigenvalues --   -0.39820  -0.22609
 Alpha virt. eigenvalues --    0.01820   0.03628   0.04090   0.04266   0.06802
 Alpha virt. eigenvalues --    0.07264   0.07826   0.08615   0.08893   0.11665
 Alpha virt. eigenvalues --    0.12259   0.14079   0.16807   0.19426   0.19581

  Beta  occ. eigenvalues --  -19.65007 -10.59222 -10.56730 -10.53241  -1.17997
  Beta  occ. eigenvalues --   -0.86684  -0.75782  -0.67445  -0.57825  -0.56511
  Beta  occ. eigenvalues --   -0.50669  -0.48747  -0.45906  -0.43143  -0.39415
  Beta  occ. eigenvalues --   -0.38064
  Beta virt. eigenvalues --   -0.00674   0.01634   0.03557   0.03974   0.04320
  Beta virt. eigenvalues --    0.06813   0.07225   0.07941   0.08576   0.09071
  Beta virt. eigenvalues --    0.10928   0.12461   0.14003   0.16874   0.19419

 Mulliken charges and spin densities:
               1          2
     1  O   -0.079878   0.067637
     2  C   -0.255089   0.020811
     3  C   -0.333803   0.003825
     4  C   -0.334598   0.986175
     5  H    0.146930   0.000649
     6  H    0.150606   0.001831
     7  H    0.145642  -0.000359
     8  H    0.129467  -0.003043
     9  H    0.127526  -0.001004
    10  H    0.143798  -0.040790
    11  H    0.159400  -0.035732
 Sum of Mulliken charges =  -0.00000   1.00000

 Dipole moment (field-independent basis, Debye):
    X=              1.3728    Y=              0.5450    Z=              0.6222  Tot=              1.6027
 Quadrupole moment (field-independent basis, Debye-Ang):
   XX=            -25.9165   YY=            -26.2340   ZZ=            -26.8561
   XY=             -1.9357   XZ=              0.6490   YZ=              0.0399

 Normal termination of Gaussian 16 at Mon Mar 11 01:55:18 2019.
