 Gaussian 16, Revision A.03,
 Gaussian 16:  EM64L-G16RevA.03 25-Dec-2016

 ----------------------------------------------
 #p m062x/6-311+g(2df,2p) Opt=(CalcFC,ModRedun)
 ----------------------------------------------

 ----------------------------------------
 Gaussian Input Prepared from Scan Object
 ----------------------------------------
 Symbolic Z-matrix:
 Charge =  0 Multiplicity = 2

 SCF Done:  E(UM062X) =  -419.170824685     A.U. after   18 cycles

  Exact polarizability:   0.000   0.000   0.000   0.000   0.000   0.000
 Approx polarizability:  68.566  -3.463  58.176  -8.496   2.211  66.901

 Optimization completed.
    -- Stationary point found.
 SCF Done:  E(UM062X) =  -419.169457963     A.U. after   14 cycles
 SCF Done:  E(UM062X) =  -419.170565547     A.U. after   14 cycles
 SCF Done:  E(UM062X) =  -419.170581119     A.U. after   13 cycles
 Optimization completed.
 SCF Done:  E(UM062X) =  -419.168750194     A.U. after   14 cycles
 SCF Done:  E(UM062X) =  -419.169879921     A.U. after   14 cycles
 SCF Done:  E(UM062X) =  -419.169899554     A.U. after   13 cycles
 SCF Done:  E(UM062X) =  -419.167700610     A.U. after   14 cycles
 SCF Done:  E(UM062X) =  -419.168880954     A.U. after   14 cycles
 SCF Done:  E(UM062X) =  -419.168905909     A.U. after   13 cycles
 SCF Done:  E(UM062X) =  -419.168822711     A.U. after   13 cycles
 SCF Done:  E(UM062X) =  -419.168599460     A.U. after   14 cycles
 SCF Done:  E(UM062X) =  -419.169853648     A.U. after   14 cycles
 SCF Done:  E(UM062X) =  -419.169868096     A.U. after   13 cycles
 SCF Done:  E(UM062X) =  -419.169405250     A.U. after   14 cycles
 SCF Done:  E(UM062X) =  -419.170562661     A.U. after   14 cycles
 SCF Done:  E(UM062X) =  -419.170576981     A.U. after   13 cycles
    -- Stationary point found.
 SCF Done:  E(UM062X) =  -419.169697164     A.U. after   14 cycles
 SCF Done:  E(UM062X) =  -419.170811903     A.U. after   14 cycles
 SCF Done:  E(UM062X) =  -419.170824655     A.U. after   13 cycles
 Optimization completed.
    -- Stationary point found.

                         Standard orientation:
 ---------------------------------------------------------------------
 Center     Atomic      Atomic             Coordinates (Angstroms)
 Number     Number       Type             X           Y           Z
 ---------------------------------------------------------------------
      1          8           0       -1.732613   -0.154747   -0.675736
      2          8           0        1.645520   -0.403853    0.712052
      3          8           0       -2.409127   -0.025975    0.568636
      4          8           0        2.317981   -0.659491   -0.366331
      5          6           0        0.385476    0.258027    0.428094
      6          6           0       -0.461426   -0.696931   -0.406085
      7          6           0        0.610431    1.595931   -0.235801
      8          1           0       -0.055422    0.373328    1.416565
      9          1           0       -0.549848   -1.664417    0.094249
     10          1           0       -0.007035   -0.833548   -1.387625
     11          1           0        1.106668    1.461737   -1.195513
     12          1           0       -0.353347    2.074151   -0.400612
     13          1           0        1.221436    2.238422    0.395323
     14          1           0       -3.143414   -0.639312    0.451393
 ---------------------------------------------------------------------

 The electronic state is 2-A.
 Alpha  occ. eigenvalues --  -19.75022 -19.70429 -19.69801 -19.69765 -10.61147
 Alpha  occ. eigenvalues --  -10.60531 -10.53865  -1.34607  -1.28425  -1.05427
 Alpha  occ. eigenvalues --   -1.00717  -0.87031  -0.79553  -0.70108  -0.64188
 Alpha  occ. eigenvalues --   -0.62038  -0.60569  -0.59531  -0.56848  -0.55355
 Alpha  occ. eigenvalues --   -0.51458  -0.48496  -0.46642  -0.45367  -0.43024
 Alpha  occ. eigenvalues --   -0.40693  -0.37822  -0.36796  -0.35130
 Alpha virt. eigenvalues --    0.01216   0.02510   0.02882   0.04197   0.05660
 Alpha virt. eigenvalues --    0.06031   0.06746   0.07072   0.08681   0.09588
 Alpha virt. eigenvalues --    0.10881   0.11843   0.13678   0.15497   0.16743

  Beta  occ. eigenvalues --  -19.74172 -19.70427 -19.69800 -19.68378 -10.61172
  Beta  occ. eigenvalues --  -10.60515 -10.53850  -1.31368  -1.28410  -1.05349
  Beta  occ. eigenvalues --   -0.97409  -0.85680  -0.79325  -0.69300  -0.63415
  Beta  occ. eigenvalues --   -0.60929  -0.59436  -0.56775  -0.55472  -0.52359
  Beta  occ. eigenvalues --   -0.50541  -0.46526  -0.46059  -0.44919  -0.42358
  Beta  occ. eigenvalues --   -0.40086  -0.36511  -0.34251
  Beta virt. eigenvalues --   -0.06232   0.01228   0.02532   0.02920   0.04263
  Beta virt. eigenvalues --    0.05677   0.06106   0.06818   0.07160   0.08820
  Beta virt. eigenvalues --    0.09662   0.10872   0.12005   0.13896   0.15757

 Mulliken charges and spin densities:
               1          2
     1  O   -0.136089  -0.000735
     2  O    0.047959   0.288927
     3  O   -0.270086   0.000648
     4  O   -0.177843   0.694051
     5  C   -0.175765  -0.005266
     6  C   -0.253831   0.007206
     7  C   -0.401890   0.011561
     8  H    0.204728   0.000352
     9  H    0.181019   0.002362
    10  H    0.206652   0.001192
    11  H    0.174145   0.000035
    12  H    0.162494  -0.000719
    13  H    0.153110   0.000500
    14  H    0.285398  -0.000114
 Sum of Mulliken charges =  -0.00000   1.00000

 Dipole moment (field-independent basis, Debye):
    X=             -2.3696    Y=             -0.1854    Z=              0.3498  Tot=              2.4024
 Quadrupole moment (field-independent basis, Debye-Ang):
   XX=            -44.0774   YY=            -39.5822   ZZ=            -42.1603
   XY=              6.6563   XZ=             -1.5468   YZ=              0.1341

 Normal termination of Gaussian 16 at Sun Apr 14 15:21:32 2019.
