 Gaussian 16, Revision A.03,
 Gaussian 16:  EM64L-G16RevA.03 25-Dec-2016

 ----------------------------------------------------------------------
 #p m062x/6-311+g(2df,2p) opt=(calcfc,verytight,gdiis,maxcycles=900) fr
 eq iop(7/33=1,2/16=3)
 ----------------------------------------------------------------------

 ------------------------------
 Gaussian input prepared by ASE
 ------------------------------
 Symbolic Z-matrix:
 Charge =  0 Multiplicity = 2

 SCF Done:  E(UM062X) =  -232.948423821     A.U. after   14 cycles
 SCF Done:  E(UM062X) =  -232.962592707     A.U. after   13 cycles
 SCF Done:  E(UM062X) =  -232.962857454     A.U. after   14 cycles
 SCF Done:  E(UM062X) =  -232.965863828     A.U. after   15 cycles
 SCF Done:  E(UM062X) =  -232.966686006     A.U. after   14 cycles
 SCF Done:  E(UM062X) =  -232.967182480     A.U. after   11 cycles
 SCF Done:  E(UM062X) =  -232.967334336     A.U. after   12 cycles
 SCF Done:  E(UM062X) =  -232.967385666     A.U. after   11 cycles
 SCF Done:  E(UM062X) =  -232.967393500     A.U. after    9 cycles
 SCF Done:  E(UM062X) =  -232.967398486     A.U. after    8 cycles
 SCF Done:  E(UM062X) =  -232.967419620     A.U. after    8 cycles
 SCF Done:  E(UM062X) =  -232.967419701     A.U. after    7 cycles
 SCF Done:  E(UM062X) =  -232.967419864     A.U. after    7 cycles
 SCF Done:  E(UM062X) =  -232.967420365     A.U. after    8 cycles
 SCF Done:  E(UM062X) =  -232.967421044     A.U. after    8 cycles
 SCF Done:  E(UM062X) =  -232.967421088     A.U. after    7 cycles
 SCF Done:  E(UM062X) =  -232.967421088     A.U. after    4 cycles
 SCF Done:  E(UM062X) =  -232.967421088     A.U. after    2 cycles
 SCF Done:  E(UM062X) =  -232.967421088     A.U. after    2 cycles
 Optimization completed.
    -- Stationary point found.
 Normal termination of Gaussian 16 at Sat Mar  9 02:11:06 2019.

 ----------------------------------------------------------------------
 #P Geom=AllCheck Guess=TCheck SCRF=Check Test GenChk UM062X/6-311+G(2d
 f,2p) Freq
 ----------------------------------------------------------------------

 Structure from the checkpoint file:  "/scratch/underkoffler.c/gaussian_scratch/Gau-47868.chk"
 ------------------------------
 Gaussian input prepared by ASE
 ------------------------------
 Charge =  0 Multiplicity = 2

                         Standard orientation:
 ---------------------------------------------------------------------
 Center     Atomic      Atomic             Coordinates (Angstroms)
 Number     Number       Type             X           Y           Z
 ---------------------------------------------------------------------
      1          8           0       -0.622380   -0.747656    0.157503
      2          6           0        0.418413    1.477924    0.042669
      3          6           0        1.729732   -0.739799   -0.013136
      4          6           0       -1.897792   -0.185926   -0.055089
      5          6           0        0.457710    0.006244   -0.208841
      6          1           0        1.336721    1.933305   -0.322629
      7          1           0       -0.418457    1.970589   -0.452214
      8          1           0        0.342405    1.699649    1.117331
      9          1           0        2.552478   -0.237547   -0.519407
     10          1           0        1.989819   -0.817195    1.051448
     11          1           0        1.640929   -1.752861   -0.402905
     12          1           0       -2.008981    0.142772   -1.091606
     13          1           0       -2.622543   -0.967520    0.155081
     14          1           0       -2.081701    0.659403    0.611258
 ---------------------------------------------------------------------

 SCF Done:  E(UM062X) =  -232.967421088     A.U. after    1 cycles

 The electronic state is 2-A.
 Alpha  occ. eigenvalues --  -19.64193 -10.58023 -10.58008 -10.52989 -10.52150
 Alpha  occ. eigenvalues --   -1.18204  -0.88255  -0.80442  -0.77376  -0.64310
 Alpha  occ. eigenvalues --   -0.55749  -0.55484  -0.54862  -0.49274  -0.46501
 Alpha  occ. eigenvalues --   -0.45893  -0.44555  -0.43013  -0.40525  -0.37535
 Alpha  occ. eigenvalues --   -0.21188
 Alpha virt. eigenvalues --    0.01707   0.02956   0.03631   0.04651   0.05490
 Alpha virt. eigenvalues --    0.06390   0.07331   0.08025   0.08189   0.09638
 Alpha virt. eigenvalues --    0.12054   0.13199   0.13608   0.14296   0.15495

  Beta  occ. eigenvalues --  -19.63900 -10.58024 -10.57251 -10.53012 -10.52189
  Beta  occ. eigenvalues --   -1.17115  -0.86823  -0.80083  -0.77132  -0.62967
  Beta  occ. eigenvalues --   -0.54496  -0.54280  -0.53591  -0.47882  -0.46199
  Beta  occ. eigenvalues --   -0.45093  -0.44346  -0.42582  -0.39125  -0.36123
  Beta virt. eigenvalues --   -0.00666   0.02347   0.03059   0.03741   0.03984
  Beta virt. eigenvalues --    0.05609   0.06287   0.07098   0.07883   0.08004
  Beta virt. eigenvalues --    0.09533   0.11555   0.12210   0.12720   0.13145

 Mulliken charges and spin densities:
               1          2
     1  O   -0.110808   0.054802
     2  C   -0.394089  -0.060494
     3  C   -0.479429  -0.022462
     4  C   -0.280737   0.018025
     5  C   -0.010394   0.869504
     6  H    0.140886   0.004139
     7  H    0.143925   0.013231
     8  H    0.157603   0.050596
     9  H    0.137460   0.006984
    10  H    0.140170   0.047587
    11  H    0.147989   0.011256
    12  H    0.135789   0.006332
    13  H    0.135731  -0.000715
    14  H    0.135904   0.001215
 Sum of Mulliken charges =   0.00000   1.00000

 Dipole moment (field-independent basis, Debye):
    X=             -0.4681    Y=              1.1141    Z=              0.0140  Tot=              1.2086
 Quadrupole moment (field-independent basis, Debye-Ang):
   XX=            -29.1359   YY=            -33.4931   ZZ=            -33.9449
   XY=             -0.2091   XZ=              0.1940   YZ=              0.3085

  Exact polarizability:  63.408  -0.588  54.820   0.634   0.264  48.524
 Approx polarizability:  64.496   0.140  61.027   0.337  -0.221  58.872

                      1                      2                      3
                      A                      A                      A
 Frequencies --    125.5554               164.3334               174.4360
 Red. masses --      2.7931                 1.0514                 1.0556
 Frc consts  --      0.0259                 0.0167                 0.0189
 IR Inten    --      6.7387                 0.0458                 0.1296

                      4                      5                      6
                      A                      A                      A
 Frequencies --    237.2178               312.3501               355.7417
 Red. masses --      1.2251                 2.0849                 2.3486
 Frc consts  --      0.0406                 0.1198                 0.1751
 IR Inten    --      2.0679                 2.2984                 0.6309

                      7                      8                      9
                      A                      A                      A
 Frequencies --    387.8097               502.5525               792.1814
 Red. masses --      2.3278                 3.0536                 3.7033
 Frc consts  --      0.2063                 0.4544                 1.3693
 IR Inten    --      0.3943                 2.5393                 7.4579

                     10                     11                     12
                      A                      A                      A
 Frequencies --    948.6609               966.5746               979.0071
 Red. masses --      1.2498                 1.7258                 1.4806
 Frc consts  --      0.6627                 0.9500                 0.8361
 IR Inten    --      0.4813                 5.8112                 8.0637

                     13                     14                     15
                      A                      A                      A
 Frequencies --   1090.4025              1153.0752              1180.9902
 Red. masses --      1.6439                 3.7836                 1.2868
 Frc consts  --      1.1516                 2.9639                 1.0574
 IR Inten    --      3.1901                56.7363                 2.1515

                     16                     17                     18
                      A                      A                      A
 Frequencies --   1206.7563              1308.3393              1337.1770
 Red. masses --      1.4634                 2.5095                 3.2650
 Frc consts  --      1.2556                 2.5309                 3.4396
 IR Inten    --      0.2795                13.2438               193.1082

                     19                     20                     21
                      A                      A                      A
 Frequencies --   1408.0395              1418.2759              1470.0587
 Red. masses --      1.5194                 1.3259                 1.0484
 Frc consts  --      1.7748                 1.5713                 1.3349
 IR Inten    --     13.8767                28.8523                 5.2857

                     22                     23                     24
                      A                      A                      A
 Frequencies --   1481.2838              1483.6532              1487.6461
 Red. masses --      1.0773                 1.1068                 1.0628
 Frc consts  --      1.3927                 1.4354                 1.3858
 IR Inten    --      3.1566                 7.2520                10.1450

                     25                     26                     27
                      A                      A                      A
 Frequencies --   1501.1152              1509.4545              1520.6562
 Red. masses --      1.0914                 1.0767                 1.0679
 Frc consts  --      1.4489                 1.4454                 1.4550
 IR Inten    --      6.9482                 6.7919                12.0394

                     28                     29                     30
                      A                      A                      A
 Frequencies --   2979.4938              2994.3778              3038.5270
 Red. masses --      1.0594                 1.0578                 1.0357
 Frc consts  --      5.5408                 5.5882                 5.6339
 IR Inten    --     31.4735                43.5512                45.0914

                     31                     32                     33
                      A                      A                      A
 Frequencies --   3097.7355              3100.5088              3103.8391
 Red. masses --      1.0887                 1.0893                 1.0734
 Frc consts  --      6.1551                 6.1696                 6.0926
 IR Inten    --     27.5130                15.8829                11.6250

                     34                     35                     36
                      A                      A                      A
 Frequencies --   3147.1820              3151.6228              3161.3827
 Red. masses --      1.1004                 1.1016                 1.0996
 Frc consts  --      6.4216                 6.4467                 6.4750
 IR Inten    --      8.0284                20.8675                16.6613

 - Thermochemistry -
 -------------------
 Temperature   298.150 Kelvin.  Pressure   1.00000 Atm.
 Atom     1 has atomic number  8 and mass  15.99491

 Molecular mass:    73.06534 amu.
 Principal axes and moments of inertia in atomic units:
                           1         2         3
     Eigenvalues --   226.77733 451.41873 637.54202
           X            0.99955  -0.02946   0.00643
           Y            0.02941   0.99953   0.00845
           Z           -0.00667  -0.00826   0.99994
 This molecule is an asymmetric top.
 Rotational symmetry number  1.
 Rotational temperatures (Kelvin)      0.38193     0.19187     0.13586
 Rotational constants (GHZ):           7.95821     3.99793     2.83078
 Zero-point vibrational energy     324654.6 (Joules/Mol)
                                   77.59432 (Kcal/Mol)
 Warning -- explicit consideration of   8 degrees of freedom as
           vibrations may cause significant error
 Vibrational temperatures:    180.65   236.44   250.97   341.30   449.40
          (Kelvin)            511.83   557.97   723.06  1139.77  1364.91
                             1390.69  1408.57  1568.85  1659.02  1699.18
                             1736.25  1882.41  1923.90  2025.85  2040.58
                             2115.09  2131.24  2134.65  2140.39  2159.77
                             2171.77  2187.89  4286.83  4308.24  4371.76
                             4456.95  4460.94  4465.73  4528.09  4534.48
                             4548.52

 Zero-point correction=                           0.123654 (Hartree/Particle)
 Thermal correction to Energy=                    0.130561
 Thermal correction to Enthalpy=                  0.131505
 Thermal correction to Gibbs Free Energy=         0.093199
 Sum of electronic and zero-point Energies=           -232.843767
 Sum of electronic and thermal Energies=              -232.836860
 Sum of electronic and thermal Enthalpies=            -232.835916
 Sum of electronic and thermal Free Energies=         -232.874222

                     E (Thermal)             CV                S
                      KCal/Mol        Cal/Mol-Kelvin    Cal/Mol-Kelvin
 Total                   81.928             23.264             80.622
 Electronic               0.000              0.000              1.377
 Translational            0.889              2.981             38.783
 Rotational               0.889              2.981             25.682
 Vibrational             80.151             17.302             14.780
 Vibration     1          0.611              1.928              3.013
 Vibration     2          0.623              1.886              2.499
 Vibration     3          0.627              1.874              2.387
 Vibration     4          0.656              1.784              1.824
 Vibration     5          0.701              1.650              1.350
 Vibration     6          0.731              1.563              1.141
 Vibration     7          0.756              1.496              1.009
 Vibration     8          0.858              1.244              0.652

                           ! Non-Optimized Parameters !
 Normal termination of Gaussian 16 at Sat Mar  9 02:21:42 2019.
