 Gaussian 16, Revision A.03,
 Gaussian 16:  EM64L-G16RevA.03 25-Dec-2016

 ----------------------------------------------
 #p m062x/6-311+g(2df,2p) Opt=(CalcFC,ModRedun)
 ----------------------------------------------

 ----------------------------------------
 Gaussian Input Prepared from Scan Object
 ----------------------------------------
 Symbolic Z-matrix:
 Charge =  0 Multiplicity = 2

 SCF Done:  E(UM062X) =  -307.005115324     A.U. after   14 cycles

  Exact polarizability:   0.000   0.000   0.000   0.000   0.000   0.000
 Approx polarizability:  62.824  -1.916  67.440   0.000  -0.000  52.316

 Optimization completed.
    -- Stationary point found.
 SCF Done:  E(UM062X) =  -307.004421551     A.U. after   11 cycles
 SCF Done:  E(UM062X) =  -307.004496429     A.U. after   10 cycles
 Optimization completed.
 SCF Done:  E(UM062X) =  -307.002628230     A.U. after   11 cycles
 SCF Done:  E(UM062X) =  -307.002724341     A.U. after   10 cycles
 SCF Done:  E(UM062X) =  -306.999905743     A.U. after   11 cycles
 SCF Done:  E(UM062X) =  -307.000044686     A.U. after   11 cycles
 SCF Done:  E(UM062X) =  -307.000045191     A.U. after    8 cycles
 SCF Done:  E(UM062X) =  -306.996628754     A.U. after   11 cycles
 SCF Done:  E(UM062X) =  -306.996823394     A.U. after   11 cycles
 SCF Done:  E(UM062X) =  -307.000045159     A.U. after   11 cycles
 SCF Done:  E(UM062X) =  -307.000045344     A.U. after    7 cycles
 SCF Done:  E(UM062X) =  -307.002597917     A.U. after   11 cycles
 SCF Done:  E(UM062X) =  -307.002723822     A.U. after   11 cycles
 SCF Done:  E(UM062X) =  -307.002724490     A.U. after    8 cycles
 SCF Done:  E(UM062X) =  -307.004406423     A.U. after   11 cycles
 SCF Done:  E(UM062X) =  -307.004496185     A.U. after   10 cycles
 SCF Done:  E(UM062X) =  -307.004496514     A.U. after    8 cycles
    -- Stationary point found.
 SCF Done:  E(UM062X) =  -307.005042240     A.U. after   11 cycles
 SCF Done:  E(UM062X) =  -307.005115249     A.U. after   10 cycles
 Optimization completed.
    -- Stationary point found.

                         Standard orientation:
 ---------------------------------------------------------------------
 Center     Atomic      Atomic             Coordinates (Angstroms)
 Number     Number       Type             X           Y           Z
 ---------------------------------------------------------------------
      1          8           0        1.072567   -0.702441   -0.000041
      2          8           0        0.065894    1.293506   -0.000001
      3          6           0       -1.276359   -0.714780    0.000019
      4          6           0        2.330582   -0.031621   -0.000034
      5          6           0       -0.003248    0.096836    0.000030
      6          6           0       -2.499355    0.119624    0.000002
      7          1           0       -1.231803   -1.385766   -0.865859
      8          1           0       -1.231258   -1.386189    0.865514
      9          1           0        2.425532    0.593654    0.885490
     10          1           0        2.425249    0.594305   -0.885080
     11          1           0        3.084524   -0.811416   -0.000094
     12          1           0       -3.470457   -0.347460    0.000212
     13          1           0       -2.419189    1.193998    0.000048
 ---------------------------------------------------------------------

 The electronic state is 2-A.
 Alpha  occ. eigenvalues --  -19.67266 -19.61668 -10.67336 -10.59189 -10.55913
 Alpha  occ. eigenvalues --  -10.54568  -1.24304  -1.14797  -0.90033  -0.82567
 Alpha  occ. eigenvalues --   -0.72519  -0.64887  -0.59880  -0.58268  -0.56705
 Alpha  occ. eigenvalues --   -0.51806  -0.51650  -0.46832  -0.45801  -0.45165
 Alpha  occ. eigenvalues --   -0.43395  -0.38344  -0.36114  -0.26710
 Alpha virt. eigenvalues --    0.01238   0.02420   0.03754   0.04269   0.04861
 Alpha virt. eigenvalues --    0.05053   0.05747   0.07882   0.08157   0.09394
 Alpha virt. eigenvalues --    0.09656   0.09706   0.11681   0.12108   0.14955

  Beta  occ. eigenvalues --  -19.67257 -19.61676 -10.67332 -10.59190 -10.55980
  Beta  occ. eigenvalues --  -10.53877  -1.24291  -1.14798  -0.89038  -0.81782
  Beta  occ. eigenvalues --   -0.70015  -0.64403  -0.59480  -0.58067  -0.56627
  Beta  occ. eigenvalues --   -0.51303  -0.50696  -0.45984  -0.45098  -0.44557
  Beta  occ. eigenvalues --   -0.43283  -0.38273  -0.36111
  Beta virt. eigenvalues --   -0.02827   0.00930   0.02362   0.03670   0.04132
  Beta virt. eigenvalues --    0.04840   0.04909   0.05778   0.07712   0.08152
  Beta virt. eigenvalues --    0.08410   0.09585   0.09941   0.12085   0.12325

 Mulliken charges and spin densities:
               1          2
     1  O   -0.169050   0.001813
     2  O   -0.406011  -0.002509
     3  C   -0.014353  -0.088831
     4  C   -0.186172  -0.001184
     5  C    0.176990   0.026861
     6  C   -0.508228   1.062721
     7  H    0.151888   0.040799
     8  H    0.151850   0.040809
     9  H    0.139652   0.000331
    10  H    0.139673   0.000331
    11  H    0.132439  -0.000059
    12  H    0.181615  -0.040973
    13  H    0.209708  -0.040107
 Sum of Mulliken charges =  -0.00000   1.00000

 Dipole moment (field-independent basis, Debye):
    X=              0.6459    Y=             -1.8242    Z=              0.0002  Tot=              1.9352
 Quadrupole moment (field-independent basis, Debye-Ang):
   XX=            -30.3928   YY=            -40.0517   ZZ=            -36.4468
   XY=              1.7534   XZ=              0.0007   YZ=             -0.0006

 Normal termination of Gaussian 16 at Tue Apr 23 23:28:07 2019.
