 Gaussian 16, Revision A.03,
 Gaussian 16:  EM64L-G16RevA.03 25-Dec-2016

 ----------------------------------------------
 #p m062x/6-311+g(2df,2p) Opt=(CalcFC,ModRedun)
 ----------------------------------------------

 ----------------------------------------
 Gaussian Input Prepared from Scan Object
 ----------------------------------------
 Symbolic Z-matrix:
 Charge =  0 Multiplicity = 2

 SCF Done:  E(UM062X) =  -307.003496626     A.U. after   15 cycles

  Exact polarizability:   0.000   0.000   0.000   0.000   0.000   0.000
 Approx polarizability:  62.930   1.661  66.676  -0.260  -2.900  55.494

 Optimization completed.
    -- Stationary point found.
 SCF Done:  E(UM062X) =  -307.002360069     A.U. after   10 cycles
 SCF Done:  E(UM062X) =  -307.003336361     A.U. after   10 cycles
 SCF Done:  E(UM062X) =  -307.003339115     A.U. after    8 cycles
 Optimization completed.
 SCF Done:  E(UM062X) =  -307.001902314     A.U. after   11 cycles
 SCF Done:  E(UM062X) =  -307.002922135     A.U. after   11 cycles
 SCF Done:  E(UM062X) =  -307.002925732     A.U. after    8 cycles
 SCF Done:  E(UM062X) =  -307.001324348     A.U. after   11 cycles
 SCF Done:  E(UM062X) =  -307.002412261     A.U. after   11 cycles
 SCF Done:  E(UM062X) =  -307.002414726     A.U. after    8 cycles
 SCF Done:  E(UM062X) =  -307.001802581     A.U. after   11 cycles
 SCF Done:  E(UM062X) =  -307.002913265     A.U. after   11 cycles
 SCF Done:  E(UM062X) =  -307.002916165     A.U. after    9 cycles
 SCF Done:  E(UM062X) =  -307.002916254     A.U. after    8 cycles
 SCF Done:  E(UM062X) =  -307.002287606     A.U. after   11 cycles
 SCF Done:  E(UM062X) =  -307.003331379     A.U. after   10 cycles
 SCF Done:  E(UM062X) =  -307.003332091     A.U. after    7 cycles
    -- Stationary point found.
 SCF Done:  E(UM062X) =  -307.002508964     A.U. after   11 cycles
 SCF Done:  E(UM062X) =  -307.003494203     A.U. after   10 cycles
 SCF Done:  E(UM062X) =  -307.003496599     A.U. after    9 cycles
 Optimization completed.
    -- Stationary point found.

                         Standard orientation:
 ---------------------------------------------------------------------
 Center     Atomic      Atomic             Coordinates (Angstroms)
 Number     Number       Type             X           Y           Z
 ---------------------------------------------------------------------
      1          8           0        0.754142   -0.665107    0.282291
      2          8           0        0.409057    1.468794   -0.295888
      3          6           0       -1.441185    0.160555    0.547835
      4          6           0        2.110879   -0.527041   -0.134207
      5          6           0       -0.004542    0.429711    0.135158
      6          6           0       -2.120229   -0.685170   -0.473463
      7          1           0       -1.423267   -0.344086    1.514869
      8          1           0       -1.926241    1.127849    0.651528
      9          1           0        2.606462    0.250566    0.443514
     10          1           0        2.156466   -0.265937   -1.189635
     11          1           0        2.577063   -1.490382    0.042358
     12          1           0       -2.611639   -0.225372   -1.316082
     13          1           0       -1.953975   -1.750473   -0.489715
 ---------------------------------------------------------------------

 The electronic state is 2-A.
 Alpha  occ. eigenvalues --  -19.67283 -19.61598 -10.67383 -10.59163 -10.55766
 Alpha  occ. eigenvalues --  -10.55723  -1.24266  -1.14753  -0.90329  -0.82163
 Alpha  occ. eigenvalues --   -0.73007  -0.65531  -0.58951  -0.57592  -0.57260
 Alpha  occ. eigenvalues --   -0.53612  -0.49866  -0.49075  -0.44873  -0.43940
 Alpha  occ. eigenvalues --   -0.43689  -0.38259  -0.36973  -0.27442
 Alpha virt. eigenvalues --    0.01475   0.02791   0.03248   0.04172   0.04898
 Alpha virt. eigenvalues --    0.05780   0.06260   0.06578   0.08026   0.09152
 Alpha virt. eigenvalues --    0.09339   0.10766   0.11491   0.13008   0.13680

  Beta  occ. eigenvalues --  -19.67268 -19.61567 -10.67272 -10.59162 -10.55810
  Beta  occ. eigenvalues --  -10.55052  -1.24172  -1.14661  -0.89088  -0.81484
  Beta  occ. eigenvalues --   -0.70180  -0.65288  -0.58400  -0.57364  -0.56964
  Beta  occ. eigenvalues --   -0.52834  -0.49296  -0.48594  -0.44354  -0.43551
  Beta  occ. eigenvalues --   -0.43386  -0.38132  -0.35978
  Beta virt. eigenvalues --   -0.03995   0.01006   0.02447   0.03196   0.04099
  Beta virt. eigenvalues --    0.04738   0.05925   0.06185   0.07349   0.08012
  Beta virt. eigenvalues --    0.08933   0.09299   0.10561   0.12278   0.12488

 Mulliken charges and spin densities:
               1          2
     1  O   -0.145680   0.007857
     2  O   -0.378648   0.016374
     3  C   -0.382979  -0.041513
     4  C   -0.192508   0.004984
     5  C    0.288433   0.013830
     6  C   -0.317915   1.051224
     7  H    0.178079   0.017241
     8  H    0.173281   0.009545
     9  H    0.140196   0.000336
    10  H    0.141605   0.000235
    11  H    0.133450  -0.000009
    12  H    0.182220  -0.039284
    13  H    0.180466  -0.040821
 Sum of Mulliken charges =  -0.00000   1.00000

 Dipole moment (field-independent basis, Debye):
    X=              0.1265    Y=             -1.7347    Z=              0.4651  Tot=              1.8004
 Quadrupole moment (field-independent basis, Debye-Ang):
   XX=            -31.8829   YY=            -40.6278   ZZ=            -35.6657
   XY=             -2.5251   XZ=             -0.0182   YZ=              1.7354

 Normal termination of Gaussian 16 at Tue Mar 12 02:59:53 2019.
