 Gaussian 16, Revision A.03,
 Gaussian 16:  EM64L-G16RevA.03 25-Dec-2016

 ----------------------------------------------
 #p m062x/6-311+g(2df,2p) Opt=(CalcFC,ModRedun)
 ----------------------------------------------

 ----------------------------------------
 Gaussian Input Prepared from Scan Object
 ----------------------------------------
 Symbolic Z-matrix:
 Charge =  0 Multiplicity = 2

 SCF Done:  E(UM062X) =  -307.005115324     A.U. after   14 cycles

  Exact polarizability:   0.000   0.000   0.000   0.000   0.000   0.000
 Approx polarizability:  62.824  -1.916  67.440   0.000  -0.000  52.316

 Optimization completed.
    -- Stationary point found.
 SCF Done:  E(UM062X) =  -306.999103624     A.U. after   12 cycles
 SCF Done:  E(UM062X) =  -307.003762324     A.U. after   12 cycles
 SCF Done:  E(UM062X) =  -307.004599766     A.U. after   12 cycles
 SCF Done:  E(UM062X) =  -307.004634720     A.U. after   11 cycles
 SCF Done:  E(UM062X) =  -307.004635879     A.U. after    9 cycles
 SCF Done:  E(UM062X) =  -307.004635906     A.U. after    8 cycles
 Optimization completed.
 SCF Done:  E(UM062X) =  -306.998007889     A.U. after   13 cycles
 SCF Done:  E(UM062X) =  -307.003055478     A.U. after   12 cycles
 SCF Done:  E(UM062X) =  -307.003739542     A.U. after   13 cycles
 SCF Done:  E(UM062X) =  -307.004652038     A.U. after   10 cycles
 SCF Done:  E(UM062X) =  -307.004653095     A.U. after   10 cycles
 SCF Done:  E(UM062X) =  -307.004653148     A.U. after    8 cycles
    -- Stationary point found.
 SCF Done:  E(UM062X) =  -306.999636374     A.U. after   13 cycles
 SCF Done:  E(UM062X) =  -307.004413057     A.U. after   12 cycles
 SCF Done:  E(UM062X) =  -307.005057947     A.U. after   12 cycles
 SCF Done:  E(UM062X) =  -307.005107549     A.U. after   11 cycles
 SCF Done:  E(UM062X) =  -307.005114225     A.U. after   11 cycles
 SCF Done:  E(UM062X) =  -307.005115246     A.U. after   10 cycles
 SCF Done:  E(UM062X) =  -307.005115314     A.U. after    8 cycles
 Optimization completed.
    -- Stationary point found.

                         Standard orientation:
 ---------------------------------------------------------------------
 Center     Atomic      Atomic             Coordinates (Angstroms)
 Number     Number       Type             X           Y           Z
 ---------------------------------------------------------------------
      1          8           0        1.072657   -0.702518   -0.000085
      2          8           0        0.065879    1.293466    0.000136
      3          6           0       -1.276457   -0.714679    0.000290
      4          6           0        2.330692   -0.031540   -0.000126
      5          6           0       -0.003245    0.096826    0.000075
      6          6           0       -2.499494    0.119620   -0.000509
      7          1           0       -1.231452   -1.386527   -0.864863
      8          1           0       -1.231731   -1.385404    0.866364
      9          1           0        2.425604    0.593824    0.885299
     10          1           0        2.425474    0.593957   -0.885471
     11          1           0        3.084785   -0.811186   -0.000240
     12          1           0       -3.470528   -0.347593   -0.000415
     13          1           0       -2.419425    1.193986    0.000537
 ---------------------------------------------------------------------

 The electronic state is 2-A.
 Alpha  occ. eigenvalues --  -19.67265 -19.61669 -10.67337 -10.59189 -10.55913
 Alpha  occ. eigenvalues --  -10.54569  -1.24300  -1.14797  -0.90032  -0.82564
 Alpha  occ. eigenvalues --   -0.72520  -0.64884  -0.59880  -0.58266  -0.56704
 Alpha  occ. eigenvalues --   -0.51806  -0.51650  -0.46834  -0.45801  -0.45167
 Alpha  occ. eigenvalues --   -0.43394  -0.38345  -0.36114  -0.26710
 Alpha virt. eigenvalues --    0.01238   0.02420   0.03754   0.04269   0.04861
 Alpha virt. eigenvalues --    0.05053   0.05747   0.07882   0.08156   0.09394
 Alpha virt. eigenvalues --    0.09657   0.09707   0.11681   0.12108   0.14955

  Beta  occ. eigenvalues --  -19.67256 -19.61677 -10.67333 -10.59190 -10.55980
  Beta  occ. eigenvalues --  -10.53878  -1.24287  -1.14798  -0.89036  -0.81780
  Beta  occ. eigenvalues --   -0.70017  -0.64400  -0.59480  -0.58064  -0.56625
  Beta  occ. eigenvalues --   -0.51303  -0.50696  -0.45985  -0.45099  -0.44558
  Beta  occ. eigenvalues --   -0.43283  -0.38273  -0.36111
  Beta virt. eigenvalues --   -0.02827   0.00930   0.02362   0.03670   0.04133
  Beta virt. eigenvalues --    0.04840   0.04909   0.05779   0.07712   0.08153
  Beta virt. eigenvalues --    0.08410   0.09585   0.09941   0.12085   0.12324

 Mulliken charges and spin densities:
               1          2
     1  O   -0.169166   0.001813
     2  O   -0.405951  -0.002509
     3  C   -0.014289  -0.088844
     4  C   -0.186137  -0.001184
     5  C    0.176947   0.026868
     6  C   -0.508238   1.062710
     7  H    0.151871   0.040771
     8  H    0.151870   0.040850
     9  H    0.139662   0.000331
    10  H    0.139666   0.000331
    11  H    0.132441  -0.000059
    12  H    0.181618  -0.040973
    13  H    0.209706  -0.040107
 Sum of Mulliken charges =  -0.00000   1.00000

 Dipole moment (field-independent basis, Debye):
    X=              0.6456    Y=             -1.8237    Z=              0.0014  Tot=              1.9346
 Quadrupole moment (field-independent basis, Debye-Ang):
   XX=            -30.3907   YY=            -40.0521   ZZ=            -36.4467
   XY=              1.7542   XZ=             -0.0039   YZ=              0.0004

 Normal termination of Gaussian 16 at Fri Mar 29 17:56:39 2019.
