 Gaussian 16, Revision A.03,
 Gaussian 16:  EM64L-G16RevA.03 25-Dec-2016

 ----------------------------------------------
 #p m062x/6-311+g(2df,2p) Opt=(CalcFC,ModRedun)
 ----------------------------------------------

 ----------------------------------------
 Gaussian Input Prepared from Scan Object
 ----------------------------------------
 Symbolic Z-matrix:
 Charge =  0 Multiplicity = 2

 SCF Done:  E(UM062X) =  -307.005115324     A.U. after   14 cycles

  Exact polarizability:   0.000   0.000   0.000   0.000   0.000   0.000
 Approx polarizability:  62.824  -1.916  67.440   0.000  -0.000  52.316

 Optimization completed.
    -- Stationary point found.
 SCF Done:  E(UM062X) =  -307.004487307     A.U. after   12 cycles
 SCF Done:  E(UM062X) =  -307.005063354     A.U. after   11 cycles
 SCF Done:  E(UM062X) =  -307.005067971     A.U. after   10 cycles
 Optimization completed.
 SCF Done:  E(UM062X) =  -307.004340187     A.U. after   11 cycles
 SCF Done:  E(UM062X) =  -307.004915492     A.U. after   11 cycles
 SCF Done:  E(UM062X) =  -307.004919544     A.U. after    9 cycles
 SCF Done:  E(UM062X) =  -307.004075510     A.U. after   11 cycles
 SCF Done:  E(UM062X) =  -307.004654031     A.U. after   11 cycles
 SCF Done:  E(UM062X) =  -307.004660101     A.U. after   10 cycles
 SCF Done:  E(UM062X) =  -307.004659986     A.U. after    9 cycles
 SCF Done:  E(UM062X) =  -307.004338429     A.U. after   12 cycles
 SCF Done:  E(UM062X) =  -307.004912559     A.U. after   11 cycles
 SCF Done:  E(UM062X) =  -307.004919471     A.U. after   10 cycles
 SCF Done:  E(UM062X) =  -307.004490803     A.U. after   12 cycles
 SCF Done:  E(UM062X) =  -307.005063100     A.U. after   10 cycles
 SCF Done:  E(UM062X) =  -307.005067912     A.U. after   10 cycles
    -- Stationary point found.
 SCF Done:  E(UM062X) =  -307.004535499     A.U. after   12 cycles
 SCF Done:  E(UM062X) =  -307.005110805     A.U. after   11 cycles
 SCF Done:  E(UM062X) =  -307.005115269     A.U. after   10 cycles
 Optimization completed.
    -- Stationary point found.

                         Standard orientation:
 ---------------------------------------------------------------------
 Center     Atomic      Atomic             Coordinates (Angstroms)
 Number     Number       Type             X           Y           Z
 ---------------------------------------------------------------------
      1          8           0        1.072676   -0.702502   -0.000011
      2          8           0        0.065733    1.293396    0.000013
      3          6           0       -1.276385   -0.714844    0.000005
      4          6           0        2.330653   -0.031416    0.000005
      5          6           0       -0.003290    0.096749    0.000028
      6          6           0       -2.499303    0.119765   -0.000059
      7          1           0       -1.231639   -1.385960   -0.865749
      8          1           0       -1.231551   -1.386407    0.865423
      9          1           0        2.425454    0.593978    0.885421
     10          1           0        2.425443    0.594064   -0.885350
     11          1           0        3.084810   -0.811000   -0.000030
     12          1           0       -3.470361   -0.347572    0.000438
     13          1           0       -2.419474    1.194212   -0.000049
 ---------------------------------------------------------------------

 The electronic state is 2-A.
 Alpha  occ. eigenvalues --  -19.67265 -19.61669 -10.67336 -10.59189 -10.55914
 Alpha  occ. eigenvalues --  -10.54570  -1.24300  -1.14797  -0.90031  -0.82563
 Alpha  occ. eigenvalues --   -0.72519  -0.64884  -0.59880  -0.58265  -0.56704
 Alpha  occ. eigenvalues --   -0.51804  -0.51649  -0.46832  -0.45801  -0.45166
 Alpha  occ. eigenvalues --   -0.43394  -0.38344  -0.36115  -0.26710
 Alpha virt. eigenvalues --    0.01238   0.02420   0.03754   0.04269   0.04861
 Alpha virt. eigenvalues --    0.05053   0.05747   0.07882   0.08156   0.09394
 Alpha virt. eigenvalues --    0.09656   0.09706   0.11681   0.12108   0.14956

  Beta  occ. eigenvalues --  -19.67256 -19.61676 -10.67332 -10.59190 -10.55981
  Beta  occ. eigenvalues --  -10.53879  -1.24287  -1.14798  -0.89036  -0.81779
  Beta  occ. eigenvalues --   -0.70015  -0.64400  -0.59481  -0.58064  -0.56625
  Beta  occ. eigenvalues --   -0.51301  -0.50696  -0.45981  -0.45101  -0.44557
  Beta  occ. eigenvalues --   -0.43282  -0.38273  -0.36112
  Beta virt. eigenvalues --   -0.02827   0.00930   0.02362   0.03670   0.04132
  Beta virt. eigenvalues --    0.04840   0.04908   0.05779   0.07712   0.08153
  Beta virt. eigenvalues --    0.08409   0.09585   0.09941   0.12084   0.12325

 Mulliken charges and spin densities:
               1          2
     1  O   -0.169169   0.001812
     2  O   -0.405949  -0.002510
     3  C   -0.014412  -0.088830
     4  C   -0.186128  -0.001185
     5  C    0.176997   0.026852
     6  C   -0.508159   1.062729
     7  H    0.151902   0.040814
     8  H    0.151867   0.040801
     9  H    0.139663   0.000331
    10  H    0.139665   0.000331
    11  H    0.132440  -0.000059
    12  H    0.181572  -0.040977
    13  H    0.209712  -0.040109
 Sum of Mulliken charges =  -0.00000   1.00000

 Dipole moment (field-independent basis, Debye):
    X=              0.6457    Y=             -1.8236    Z=              0.0003  Tot=              1.9345
 Quadrupole moment (field-independent basis, Debye-Ang):
   XX=            -30.3925   YY=            -40.0503   ZZ=            -36.4470
   XY=              1.7545   XZ=             -0.0011   YZ=             -0.0003

 Normal termination of Gaussian 16 at Tue Apr 23 23:38:39 2019.
