 Gaussian 16, Revision A.03,
 Gaussian 16:  EM64L-G16RevA.03 25-Dec-2016

 ----------------------------------------------
 #p m062x/6-311+g(2df,2p) Opt=(CalcFC,ModRedun)
 ----------------------------------------------

 ----------------------------------------
 Gaussian Input Prepared from Scan Object
 ----------------------------------------
 Symbolic Z-matrix:
 Charge =  0 Multiplicity = 2

 SCF Done:  E(UM062X) =  -307.005115324     A.U. after   14 cycles

  Exact polarizability:   0.000   0.000   0.000   0.000   0.000   0.000
 Approx polarizability:  62.824  -1.916  67.440   0.000  -0.000  52.316

 Optimization completed.
    -- Stationary point found.
 SCF Done:  E(UM062X) =  -307.003974534     A.U. after   10 cycles
 SCF Done:  E(UM062X) =  -307.004948119     A.U. after   10 cycles
 SCF Done:  E(UM062X) =  -307.004950954     A.U. after    8 cycles
 Optimization completed.
 SCF Done:  E(UM062X) =  -307.003505753     A.U. after   10 cycles
 SCF Done:  E(UM062X) =  -307.004524774     A.U. after   10 cycles
 SCF Done:  E(UM062X) =  -307.004528024     A.U. after    8 cycles
 SCF Done:  E(UM062X) =  -307.002915221     A.U. after   11 cycles
 SCF Done:  E(UM062X) =  -307.004001548     A.U. after   11 cycles
 SCF Done:  E(UM062X) =  -307.004003925     A.U. after    8 cycles
 SCF Done:  E(UM062X) =  -307.003412608     A.U. after   11 cycles
 SCF Done:  E(UM062X) =  -307.004526925     A.U. after   10 cycles
 SCF Done:  E(UM062X) =  -307.004528030     A.U. after    8 cycles
 SCF Done:  E(UM062X) =  -307.003905180     A.U. after   11 cycles
 SCF Done:  E(UM062X) =  -307.004947823     A.U. after   10 cycles
 SCF Done:  E(UM062X) =  -307.004950926     A.U. after    9 cycles
 SCF Done:  E(UM062X) =  -307.004950963     A.U. after    7 cycles
    -- Stationary point found.
 SCF Done:  E(UM062X) =  -307.004128641     A.U. after   10 cycles
 SCF Done:  E(UM062X) =  -307.005113035     A.U. after   10 cycles
 SCF Done:  E(UM062X) =  -307.005115309     A.U. after    8 cycles
 Optimization completed.
    -- Stationary point found.

                         Standard orientation:
 ---------------------------------------------------------------------
 Center     Atomic      Atomic             Coordinates (Angstroms)
 Number     Number       Type             X           Y           Z
 ---------------------------------------------------------------------
      1          8           0        1.072671   -0.702552    0.000272
      2          8           0        0.065971    1.293432   -0.000013
      3          6           0       -1.276482   -0.714667   -0.000068
      4          6           0        2.330647   -0.031512   -0.000134
      5          6           0       -0.003243    0.096798   -0.000014
      6          6           0       -2.499511    0.119664   -0.000009
      7          1           0       -1.231683   -1.385886   -0.865724
      8          1           0       -1.231629   -1.385989    0.865519
      9          1           0        2.425452    0.594315    0.885004
     10          1           0        2.425502    0.593402   -0.885842
     11          1           0        3.084807   -0.811102    0.000167
     12          1           0       -3.470572   -0.347519   -0.000520
     13          1           0       -2.419478    1.194042    0.000680
 ---------------------------------------------------------------------

 The electronic state is 2-A.
 Alpha  occ. eigenvalues --  -19.67265 -19.61669 -10.67337 -10.59189 -10.55914
 Alpha  occ. eigenvalues --  -10.54570  -1.24300  -1.14797  -0.90032  -0.82564
 Alpha  occ. eigenvalues --   -0.72520  -0.64884  -0.59880  -0.58266  -0.56704
 Alpha  occ. eigenvalues --   -0.51805  -0.51651  -0.46834  -0.45801  -0.45167
 Alpha  occ. eigenvalues --   -0.43394  -0.38345  -0.36114  -0.26710
 Alpha virt. eigenvalues --    0.01238   0.02420   0.03754   0.04269   0.04861
 Alpha virt. eigenvalues --    0.05053   0.05747   0.07882   0.08156   0.09394
 Alpha virt. eigenvalues --    0.09656   0.09707   0.11681   0.12108   0.14955

  Beta  occ. eigenvalues --  -19.67256 -19.61677 -10.67333 -10.59189 -10.55981
  Beta  occ. eigenvalues --  -10.53879  -1.24287  -1.14797  -0.89036  -0.81779
  Beta  occ. eigenvalues --   -0.70017  -0.64400  -0.59480  -0.58065  -0.56625
  Beta  occ. eigenvalues --   -0.51302  -0.50697  -0.45985  -0.45099  -0.44558
  Beta  occ. eigenvalues --   -0.43282  -0.38273  -0.36111
  Beta virt. eigenvalues --   -0.02827   0.00930   0.02362   0.03670   0.04133
  Beta virt. eigenvalues --    0.04840   0.04908   0.05779   0.07712   0.08153
  Beta virt. eigenvalues --    0.08409   0.09585   0.09941   0.12085   0.12324

 Mulliken charges and spin densities:
               1          2
     1  O   -0.169176   0.001813
     2  O   -0.405940  -0.002508
     3  C   -0.014292  -0.088844
     4  C   -0.186125  -0.001184
     5  C    0.176940   0.026869
     6  C   -0.508232   1.062717
     7  H    0.151875   0.040787
     8  H    0.151872   0.040828
     9  H    0.139659   0.000331
    10  H    0.139663   0.000331
    11  H    0.132437  -0.000059
    12  H    0.181616  -0.040974
    13  H    0.209703  -0.040107
 Sum of Mulliken charges =  -0.00000   1.00000

 Dipole moment (field-independent basis, Debye):
    X=              0.6451    Y=             -1.8236    Z=             -0.0005  Tot=              1.9343
 Quadrupole moment (field-independent basis, Debye-Ang):
   XX=            -30.3909   YY=            -40.0524   ZZ=            -36.4464
   XY=              1.7542   XZ=             -0.0009   YZ=              0.0018

 Normal termination of Gaussian 16 at Wed Mar 13 15:56:24 2019.
