 Gaussian 16, Revision A.03,
 Gaussian 16:  EM64L-G16RevA.03 25-Dec-2016

 ----------------------------------------------
 #p m062x/6-311+g(2df,2p) Opt=(CalcFC,ModRedun)
 ----------------------------------------------

 ----------------------------------------
 Gaussian Input Prepared from Scan Object
 ----------------------------------------
 Symbolic Z-matrix:
 Charge =  0 Multiplicity = 2

 SCF Done:  E(UM062X) =  -307.005115324     A.U. after   14 cycles

  Exact polarizability:   0.000   0.000   0.000   0.000   0.000   0.000
 Approx polarizability:  62.824  -1.916  67.440   0.000  -0.000  52.316

 Optimization completed.
    -- Stationary point found.
 SCF Done:  E(UM062X) =  -307.003974535     A.U. after   10 cycles
 SCF Done:  E(UM062X) =  -307.004942977     A.U. after   10 cycles
 SCF Done:  E(UM062X) =  -307.004946044     A.U. after    8 cycles
 Optimization completed.
 SCF Done:  E(UM062X) =  -307.003493298     A.U. after   10 cycles
 SCF Done:  E(UM062X) =  -307.004511888     A.U. after   11 cycles
 SCF Done:  E(UM062X) =  -307.004515660     A.U. after    8 cycles
 SCF Done:  E(UM062X) =  -307.002899654     A.U. after   11 cycles
 SCF Done:  E(UM062X) =  -307.003987796     A.U. after   11 cycles
 SCF Done:  E(UM062X) =  -307.003990615     A.U. after    7 cycles
 SCF Done:  E(UM062X) =  -307.003990615     A.U. after    8 cycles
 SCF Done:  E(UM062X) =  -307.003398228     A.U. after   11 cycles
 SCF Done:  E(UM062X) =  -307.004513305     A.U. after   10 cycles
 SCF Done:  E(UM062X) =  -307.004515655     A.U. after    8 cycles
 SCF Done:  E(UM062X) =  -307.003899227     A.U. after   11 cycles
 SCF Done:  E(UM062X) =  -307.004943209     A.U. after   10 cycles
 SCF Done:  E(UM062X) =  -307.004946036     A.U. after    8 cycles
    -- Stationary point found.
 SCF Done:  E(UM062X) =  -307.004132482     A.U. after   10 cycles
 SCF Done:  E(UM062X) =  -307.005113099     A.U. after   10 cycles
 SCF Done:  E(UM062X) =  -307.005115322     A.U. after    8 cycles
 Optimization completed.
    -- Stationary point found.

                         Standard orientation:
 ---------------------------------------------------------------------
 Center     Atomic      Atomic             Coordinates (Angstroms)
 Number     Number       Type             X           Y           Z
 ---------------------------------------------------------------------
      1          8           0        1.072664   -0.702541    0.000020
      2          8           0        0.065932    1.293456   -0.000009
      3          6           0       -1.276460   -0.714673   -0.000015
      4          6           0        2.330668   -0.031534    0.000008
      5          6           0       -0.003240    0.096824   -0.000034
      6          6           0       -2.499508    0.119632    0.000019
      7          1           0       -1.231644   -1.385940   -0.865639
      8          1           0       -1.231593   -1.385946    0.865602
      9          1           0        2.425441    0.593938    0.885375
     10          1           0        2.425512    0.593814   -0.885425
     11          1           0        3.084816   -0.811123    0.000057
     12          1           0       -3.470559   -0.347572    0.000010
     13          1           0       -2.419497    1.194012    0.000064
 ---------------------------------------------------------------------

 The electronic state is 2-A.
 Alpha  occ. eigenvalues --  -19.67265 -19.61669 -10.67337 -10.59189 -10.55914
 Alpha  occ. eigenvalues --  -10.54569  -1.24300  -1.14797  -0.90032  -0.82564
 Alpha  occ. eigenvalues --   -0.72520  -0.64884  -0.59880  -0.58266  -0.56704
 Alpha  occ. eigenvalues --   -0.51806  -0.51650  -0.46834  -0.45801  -0.45167
 Alpha  occ. eigenvalues --   -0.43394  -0.38345  -0.36114  -0.26710
 Alpha virt. eigenvalues --    0.01238   0.02420   0.03754   0.04269   0.04861
 Alpha virt. eigenvalues --    0.05053   0.05747   0.07882   0.08156   0.09394
 Alpha virt. eigenvalues --    0.09656   0.09707   0.11681   0.12108   0.14955

  Beta  occ. eigenvalues --  -19.67256 -19.61677 -10.67333 -10.59190 -10.55980
  Beta  occ. eigenvalues --  -10.53878  -1.24287  -1.14798  -0.89036  -0.81779
  Beta  occ. eigenvalues --   -0.70017  -0.64400  -0.59480  -0.58064  -0.56625
  Beta  occ. eigenvalues --   -0.51303  -0.50697  -0.45985  -0.45099  -0.44558
  Beta  occ. eigenvalues --   -0.43283  -0.38273  -0.36111
  Beta virt. eigenvalues --   -0.02827   0.00930   0.02362   0.03670   0.04133
  Beta virt. eigenvalues --    0.04840   0.04909   0.05779   0.07712   0.08153
  Beta virt. eigenvalues --    0.08409   0.09585   0.09941   0.12084   0.12324

 Mulliken charges and spin densities:
               1          2
     1  O   -0.169171   0.001813
     2  O   -0.405937  -0.002508
     3  C   -0.014288  -0.088844
     4  C   -0.186132  -0.001184
     5  C    0.176937   0.026868
     6  C   -0.508235   1.062717
     7  H    0.151873   0.040806
     8  H    0.151873   0.040809
     9  H    0.139660   0.000331
    10  H    0.139662   0.000331
    11  H    0.132441  -0.000059
    12  H    0.181615  -0.040974
    13  H    0.209701  -0.040107
 Sum of Mulliken charges =  -0.00000   1.00000

 Dipole moment (field-independent basis, Debye):
    X=              0.6453    Y=             -1.8236    Z=             -0.0001  Tot=              1.9344
 Quadrupole moment (field-independent basis, Debye-Ang):
   XX=            -30.3909   YY=            -40.0523   ZZ=            -36.4465
   XY=              1.7541   XZ=             -0.0001   YZ=              0.0002

 Normal termination of Gaussian 16 at Tue Apr 23 23:09:42 2019.
