 Gaussian 16, Revision A.03,
 Gaussian 16:  EM64L-G16RevA.03 25-Dec-2016

 ----------------------------------------------
 #p m062x/6-311+g(2df,2p) Opt=(CalcFC,ModRedun)
 ----------------------------------------------

 ----------------------------------------
 Gaussian Input Prepared from Scan Object
 ----------------------------------------
 Symbolic Z-matrix:
 Charge =  0 Multiplicity = 2

 SCF Done:  E(UM062X) =  -307.005115324     A.U. after   14 cycles

  Exact polarizability:   0.000   0.000   0.000   0.000   0.000   0.000
 Approx polarizability:  62.824  -1.916  67.440   0.000  -0.000  52.316

 Optimization completed.
    -- Stationary point found.
 SCF Done:  E(UM062X) =  -307.003894696     A.U. after   12 cycles
 SCF Done:  E(UM062X) =  -307.004982587     A.U. after   11 cycles
 SCF Done:  E(UM062X) =  -307.004995576     A.U. after   10 cycles
 Optimization completed.
 SCF Done:  E(UM062X) =  -307.003533777     A.U. after   12 cycles
 SCF Done:  E(UM062X) =  -307.004636402     A.U. after   11 cycles
 SCF Done:  E(UM062X) =  -307.004647921     A.U. after    9 cycles
 SCF Done:  E(UM062X) =  -307.002961914     A.U. after   12 cycles
 SCF Done:  E(UM062X) =  -307.004106284     A.U. after   11 cycles
 SCF Done:  E(UM062X) =  -307.004118597     A.U. after    9 cycles
 SCF Done:  E(UM062X) =  -307.003500711     A.U. after   12 cycles
 SCF Done:  E(UM062X) =  -307.004634166     A.U. after   11 cycles
 SCF Done:  E(UM062X) =  -307.004647941     A.U. after   10 cycles
 SCF Done:  E(UM062X) =  -307.003878457     A.U. after   12 cycles
 SCF Done:  E(UM062X) =  -307.004982036     A.U. after   11 cycles
 SCF Done:  E(UM062X) =  -307.004995158     A.U. after   10 cycles
 SCF Done:  E(UM062X) =  -307.004995601     A.U. after    8 cycles
    -- Stationary point found.
 SCF Done:  E(UM062X) =  -307.004009349     A.U. after   12 cycles
 SCF Done:  E(UM062X) =  -307.005096819     A.U. after   11 cycles
 SCF Done:  E(UM062X) =  -307.005115270     A.U. after   10 cycles
 Optimization completed.
    -- Stationary point found.

                         Standard orientation:
 ---------------------------------------------------------------------
 Center     Atomic      Atomic             Coordinates (Angstroms)
 Number     Number       Type             X           Y           Z
 ---------------------------------------------------------------------
      1          8           0        1.072428   -0.702507   -0.000035
      2          8           0        0.066154    1.293750    0.000030
      3          6           0       -1.276335   -0.714587    0.000031
      4          6           0        2.330617   -0.031837   -0.000031
      5          6           0       -0.003289    0.097123    0.000078
      6          6           0       -2.499549    0.119424   -0.000106
      7          1           0       -1.231415   -1.386081   -0.865444
      8          1           0       -1.231340   -1.385791    0.865701
      9          1           0        2.425669    0.593468    0.885418
     10          1           0        2.425604    0.593659   -0.885355
     11          1           0        3.084514   -0.811674   -0.000127
     12          1           0       -3.470457   -0.348083    0.000154
     13          1           0       -2.419886    1.193818   -0.000139
 ---------------------------------------------------------------------

 The electronic state is 2-A.
 Alpha  occ. eigenvalues --  -19.67264 -19.61671 -10.67337 -10.59188 -10.55914
 Alpha  occ. eigenvalues --  -10.54570  -1.24299  -1.14797  -0.90034  -0.82564
 Alpha  occ. eigenvalues --   -0.72520  -0.64884  -0.59880  -0.58265  -0.56704
 Alpha  occ. eigenvalues --   -0.51806  -0.51649  -0.46833  -0.45802  -0.45167
 Alpha  occ. eigenvalues --   -0.43395  -0.38344  -0.36116  -0.26710
 Alpha virt. eigenvalues --    0.01238   0.02420   0.03754   0.04269   0.04860
 Alpha virt. eigenvalues --    0.05053   0.05747   0.07882   0.08156   0.09394
 Alpha virt. eigenvalues --    0.09656   0.09706   0.11681   0.12106   0.14955

  Beta  occ. eigenvalues --  -19.67255 -19.61679 -10.67334 -10.59189 -10.55980
  Beta  occ. eigenvalues --  -10.53879  -1.24286  -1.14798  -0.89038  -0.81779
  Beta  occ. eigenvalues --   -0.70017  -0.64400  -0.59481  -0.58064  -0.56625
  Beta  occ. eigenvalues --   -0.51303  -0.50695  -0.45984  -0.45100  -0.44558
  Beta  occ. eigenvalues --   -0.43284  -0.38273  -0.36113
  Beta virt. eigenvalues --   -0.02827   0.00930   0.02362   0.03670   0.04132
  Beta virt. eigenvalues --    0.04840   0.04907   0.05779   0.07712   0.08153
  Beta virt. eigenvalues --    0.08409   0.09586   0.09940   0.12083   0.12324

 Mulliken charges and spin densities:
               1          2
     1  O   -0.169136   0.001814
     2  O   -0.405931  -0.002508
     3  C   -0.014118  -0.088849
     4  C   -0.186165  -0.001183
     5  C    0.176836   0.026864
     6  C   -0.508300   1.062706
     7  H    0.151879   0.040814
     8  H    0.151885   0.040820
     9  H    0.139658   0.000331
    10  H    0.139661   0.000331
    11  H    0.132435  -0.000059
    12  H    0.181608  -0.040975
    13  H    0.209686  -0.040105
 Sum of Mulliken charges =  -0.00000   1.00000

 Dipole moment (field-independent basis, Debye):
    X=              0.6450    Y=             -1.8243    Z=              0.0004  Tot=              1.9350
 Quadrupole moment (field-independent basis, Debye-Ang):
   XX=            -30.3918   YY=            -40.0524   ZZ=            -36.4468
   XY=              1.7527   XZ=             -0.0008   YZ=             -0.0003

 Normal termination of Gaussian 16 at Tue Apr 23 23:23:40 2019.
