 Gaussian 16, Revision A.03,
 Gaussian 16:  EM64L-G16RevA.03 25-Dec-2016

 ----------------------------------------------
 #p m062x/6-311+g(2df,2p) Opt=(CalcFC,ModRedun)
 ----------------------------------------------

 ----------------------------------------
 Gaussian Input Prepared from Scan Object
 ----------------------------------------
 Symbolic Z-matrix:
 Charge =  0 Multiplicity = 2

 SCF Done:  E(UM062X) =  -307.005115324     A.U. after   14 cycles

  Exact polarizability:   0.000   0.000   0.000   0.000   0.000   0.000
 Approx polarizability:  62.824  -1.916  67.440   0.000  -0.000  52.316

 Optimization completed.
    -- Stationary point found.
 SCF Done:  E(UM062X) =  -306.995107199     A.U. after   13 cycles
 SCF Done:  E(UM062X) =  -307.003580187     A.U. after   11 cycles
 SCF Done:  E(UM062X) =  -307.004034333     A.U. after   10 cycles
 SCF Done:  E(UM062X) =  -307.004038050     A.U. after    9 cycles
 SCF Done:  E(UM062X) =  -307.004038127     A.U. after    7 cycles
 Optimization completed.
 SCF Done:  E(UM062X) =  -306.992857547     A.U. after   12 cycles
 SCF Done:  E(UM062X) =  -307.002565752     A.U. after   11 cycles
 SCF Done:  E(UM062X) =  -307.003143272     A.U. after   10 cycles
 SCF Done:  E(UM062X) =  -307.003148062     A.U. after    9 cycles
 SCF Done:  E(UM062X) =  -307.003140584     A.U. after   10 cycles
 SCF Done:  E(UM062X) =  -307.003148417     A.U. after    9 cycles
 SCF Done:  E(UM062X) =  -306.993841763     A.U. after   12 cycles
 SCF Done:  E(UM062X) =  -307.003509152     A.U. after   11 cycles
 SCF Done:  E(UM062X) =  -307.004047480     A.U. after   10 cycles
 SCF Done:  E(UM062X) =  -307.004051254     A.U. after    9 cycles
    -- Stationary point found.
 SCF Done:  E(UM062X) =  -306.996148796     A.U. after   12 cycles
 SCF Done:  E(UM062X) =  -307.004747286     A.U. after   11 cycles
 SCF Done:  E(UM062X) =  -307.005109817     A.U. after   10 cycles
 SCF Done:  E(UM062X) =  -307.005115253     A.U. after    9 cycles
 Optimization completed.
    -- Stationary point found.

                         Standard orientation:
 ---------------------------------------------------------------------
 Center     Atomic      Atomic             Coordinates (Angstroms)
 Number     Number       Type             X           Y           Z
 ---------------------------------------------------------------------
      1          8           0        1.072679   -0.702733   -0.000240
      2          8           0        0.066253    1.293273   -0.000128
      3          6           0       -1.276553   -0.714633    0.000014
      4          6           0        2.330428   -0.031386    0.000218
      5          6           0       -0.003206    0.096651   -0.000093
      6          6           0       -2.499453    0.119888    0.000120
      7          1           0       -1.231903   -1.385903   -0.865617
      8          1           0       -1.231761   -1.385914    0.865629
      9          1           0        2.424771    0.593779    0.885891
     10          1           0        2.425368    0.594425   -0.884781
     11          1           0        3.084609   -0.810939   -0.000064
     12          1           0       -3.470590   -0.347137    0.000296
     13          1           0       -2.419245    1.194254    0.000030
 ---------------------------------------------------------------------

 The electronic state is 2-A.
 Alpha  occ. eigenvalues --  -19.67265 -19.61669 -10.67336 -10.59186 -10.55915
 Alpha  occ. eigenvalues --  -10.54570  -1.24303  -1.14796  -0.90033  -0.82563
 Alpha  occ. eigenvalues --   -0.72520  -0.64885  -0.59881  -0.58267  -0.56704
 Alpha  occ. eigenvalues --   -0.51805  -0.51650  -0.46834  -0.45801  -0.45166
 Alpha  occ. eigenvalues --   -0.43396  -0.38344  -0.36115  -0.26711
 Alpha virt. eigenvalues --    0.01238   0.02420   0.03754   0.04270   0.04861
 Alpha virt. eigenvalues --    0.05053   0.05747   0.07882   0.08156   0.09394
 Alpha virt. eigenvalues --    0.09657   0.09706   0.11681   0.12109   0.14955

  Beta  occ. eigenvalues --  -19.67256 -19.61677 -10.67333 -10.59187 -10.55982
  Beta  occ. eigenvalues --  -10.53879  -1.24290  -1.14797  -0.89037  -0.81779
  Beta  occ. eigenvalues --   -0.70017  -0.64401  -0.59482  -0.58065  -0.56625
  Beta  occ. eigenvalues --   -0.51302  -0.50696  -0.45984  -0.45099  -0.44557
  Beta  occ. eigenvalues --   -0.43285  -0.38273  -0.36112
  Beta virt. eigenvalues --   -0.02828   0.00930   0.02363   0.03670   0.04133
  Beta virt. eigenvalues --    0.04840   0.04908   0.05779   0.07711   0.08153
  Beta virt. eigenvalues --    0.08409   0.09585   0.09941   0.12086   0.12324

 Mulliken charges and spin densities:
               1          2
     1  O   -0.169178   0.001812
     2  O   -0.405939  -0.002508
     3  C   -0.014338  -0.088848
     4  C   -0.186119  -0.001185
     5  C    0.176953   0.026872
     6  C   -0.508225   1.062717
     7  H    0.151879   0.040812
     8  H    0.151874   0.040805
     9  H    0.139645   0.000331
    10  H    0.139688   0.000331
    11  H    0.132436  -0.000059
    12  H    0.181620  -0.040974
    13  H    0.209706  -0.040106
 Sum of Mulliken charges =  -0.00000   1.00000

 Dipole moment (field-independent basis, Debye):
    X=              0.6437    Y=             -1.8231    Z=              0.0005  Tot=              1.9334
 Quadrupole moment (field-independent basis, Debye-Ang):
   XX=            -30.3935   YY=            -40.0513   ZZ=            -36.4466
   XY=              1.7548   XZ=              0.0001   YZ=             -0.0000

 Normal termination of Gaussian 16 at Fri Mar 29 16:58:55 2019.
