 Gaussian 16, Revision A.03,
 Gaussian 16:  EM64L-G16RevA.03 25-Dec-2016

 ----------------------------------------------
 #p m062x/6-311+g(2df,2p) Opt=(CalcFC,ModRedun)
 ----------------------------------------------

 ----------------------------------------
 Gaussian Input Prepared from Scan Object
 ----------------------------------------
 Symbolic Z-matrix:
 Charge =  0 Multiplicity = 2

 SCF Done:  E(UM062X) =  -307.005115324     A.U. after   14 cycles

  Exact polarizability:   0.000   0.000   0.000   0.000   0.000   0.000
 Approx polarizability:  62.824  -1.916  67.440   0.000  -0.000  52.316

 Optimization completed.
    -- Stationary point found.
 SCF Done:  E(UM062X) =  -306.998865778     A.U. after   14 cycles
 SCF Done:  E(UM062X) =  -307.000405227     A.U. after   12 cycles
 SCF Done:  E(UM062X) =  -307.000558856     A.U. after   12 cycles
 SCF Done:  E(UM062X) =  -307.000585916     A.U. after   11 cycles
 SCF Done:  E(UM062X) =  -307.000588843     A.U. after   11 cycles
 SCF Done:  E(UM062X) =  -307.000588883     A.U. after    7 cycles
 Optimization completed.
 SCF Done:  E(UM062X) =  -306.987486581     A.U. after   13 cycles
 SCF Done:  E(UM062X) =  -306.990486808     A.U. after   12 cycles
 SCF Done:  E(UM062X) =  -306.990752754     A.U. after   11 cycles
 SCF Done:  E(UM062X) =  -307.000588237     A.U. after   10 cycles
 SCF Done:  E(UM062X) =  -307.000588907     A.U. after    9 cycles
 SCF Done:  E(UM062X) =  -307.000588929     A.U. after    7 cycles
    -- Stationary point found.
 SCF Done:  E(UM062X) =  -307.003864796     A.U. after   12 cycles
 SCF Done:  E(UM062X) =  -307.004945406     A.U. after   11 cycles
 SCF Done:  E(UM062X) =  -307.005041572     A.U. after   11 cycles
 SCF Done:  E(UM062X) =  -307.005092834     A.U. after   11 cycles
 SCF Done:  E(UM062X) =  -307.005114280     A.U. after   11 cycles
 SCF Done:  E(UM062X) =  -307.005115303     A.U. after    8 cycles
 SCF Done:  E(UM062X) =  -307.005115323     A.U. after    7 cycles
 Optimization completed.
    -- Stationary point found.

                         Standard orientation:
 ---------------------------------------------------------------------
 Center     Atomic      Atomic             Coordinates (Angstroms)
 Number     Number       Type             X           Y           Z
 ---------------------------------------------------------------------
      1          8           0        1.072653   -0.702543   -0.000023
      2          8           0        0.065928    1.293467    0.000090
      3          6           0       -1.276453   -0.714663    0.000088
      4          6           0        2.330677   -0.031543   -0.000066
      5          6           0       -0.003241    0.096831    0.000045
      6          6           0       -2.499513    0.119623   -0.000117
      7          1           0       -1.231554   -1.386099   -0.865400
      8          1           0       -1.231659   -1.385791    0.865823
      9          1           0        2.425534    0.593887    0.885319
     10          1           0        2.425482    0.593891   -0.885454
     11          1           0        3.084800   -0.811161   -0.000094
     12          1           0       -3.470549   -0.347610   -0.000128
     13          1           0       -2.419528    1.194003   -0.000301
 ---------------------------------------------------------------------

 The electronic state is 2-A.
 Alpha  occ. eigenvalues --  -19.67265 -19.61669 -10.67337 -10.59189 -10.55914
 Alpha  occ. eigenvalues --  -10.54569  -1.24300  -1.14797  -0.90032  -0.82564
 Alpha  occ. eigenvalues --   -0.72520  -0.64884  -0.59880  -0.58265  -0.56704
 Alpha  occ. eigenvalues --   -0.51805  -0.51650  -0.46834  -0.45801  -0.45167
 Alpha  occ. eigenvalues --   -0.43395  -0.38345  -0.36114  -0.26710
 Alpha virt. eigenvalues --    0.01238   0.02420   0.03754   0.04269   0.04861
 Alpha virt. eigenvalues --    0.05053   0.05747   0.07882   0.08156   0.09394
 Alpha virt. eigenvalues --    0.09656   0.09707   0.11681   0.12108   0.14955

  Beta  occ. eigenvalues --  -19.67256 -19.61677 -10.67333 -10.59190 -10.55980
  Beta  occ. eigenvalues --  -10.53878  -1.24287  -1.14798  -0.89036  -0.81779
  Beta  occ. eigenvalues --   -0.70017  -0.64400  -0.59480  -0.58064  -0.56625
  Beta  occ. eigenvalues --   -0.51303  -0.50696  -0.45985  -0.45099  -0.44558
  Beta  occ. eigenvalues --   -0.43283  -0.38273  -0.36111
  Beta virt. eigenvalues --   -0.02827   0.00930   0.02362   0.03670   0.04133
  Beta virt. eigenvalues --    0.04840   0.04909   0.05779   0.07712   0.08153
  Beta virt. eigenvalues --    0.08409   0.09585   0.09941   0.12085   0.12324

 Mulliken charges and spin densities:
               1          2
     1  O   -0.169174   0.001813
     2  O   -0.405940  -0.002508
     3  C   -0.014279  -0.088844
     4  C   -0.186134  -0.001184
     5  C    0.176933   0.026868
     6  C   -0.508237   1.062716
     7  H    0.151870   0.040808
     8  H    0.151876   0.040808
     9  H    0.139663   0.000331
    10  H    0.139664   0.000331
    11  H    0.132442  -0.000059
    12  H    0.181615  -0.040974
    13  H    0.209702  -0.040107
 Sum of Mulliken charges =  -0.00000   1.00000

 Dipole moment (field-independent basis, Debye):
    X=              0.6454    Y=             -1.8236    Z=             -0.0001  Tot=              1.9344
 Quadrupole moment (field-independent basis, Debye-Ang):
   XX=            -30.3908   YY=            -40.0522   ZZ=            -36.4467
   XY=              1.7541   XZ=             -0.0002   YZ=             -0.0006

 Normal termination of Gaussian 16 at Fri Mar 29 17:17:17 2019.
