 Gaussian 16, Revision A.03,
 Gaussian 16:  EM64L-G16RevA.03 25-Dec-2016

 ----------------------------------------------------------------------
 #p m062x/6-311+g(2df,2p) opt=(calcfc,verytight,gdiis,maxcycles=900) fr
 eq iop(7/33=1,2/16=3)
 ----------------------------------------------------------------------

 ------------------------------
 Gaussian input prepared by ASE
 ------------------------------
 Symbolic Z-matrix:
 Charge =  0 Multiplicity = 2

 SCF Done:  E(UM062X) =  -307.005113632     A.U. after   14 cycles
 SCF Done:  E(UM062X) =  -307.005115261     A.U. after    9 cycles
 SCF Done:  E(UM062X) =  -307.005115298     A.U. after    7 cycles
 SCF Done:  E(UM062X) =  -307.005115319     A.U. after    7 cycles
 SCF Done:  E(UM062X) =  -307.005115324     A.U. after    7 cycles
 SCF Done:  E(UM062X) =  -307.005115324     A.U. after    4 cycles
 SCF Done:  E(UM062X) =  -307.005115324     A.U. after    4 cycles
 SCF Done:  E(UM062X) =  -307.005115324     A.U. after    3 cycles
 SCF Done:  E(UM062X) =  -307.005115324     A.U. after    3 cycles
 Optimization completed.
    -- Stationary point found.
 Normal termination of Gaussian 16 at Wed Mar 13 04:33:19 2019.

 ----------------------------------------------------------------------
 #P Geom=AllCheck Guess=TCheck SCRF=Check Test GenChk UM062X/6-311+G(2d
 f,2p) Freq
 ----------------------------------------------------------------------

 Structure from the checkpoint file:  "/scratch/underkoffler.c/gaussian_scratch/Gau-42862.chk"
 ------------------------------
 Gaussian input prepared by ASE
 ------------------------------
 Charge =  0 Multiplicity = 2

                         Standard orientation:
 ---------------------------------------------------------------------
 Center     Atomic      Atomic             Coordinates (Angstroms)
 Number     Number       Type             X           Y           Z
 ---------------------------------------------------------------------
      1          8           0       -1.072656   -0.702517    0.000001
      2          8           0       -0.065896    1.293478   -0.000002
      3          6           0        1.276450   -0.714676   -0.000006
      4          6           0       -2.330697   -0.031553    0.000003
      5          6           0        0.003241    0.096840   -0.000002
      6          6           0        2.499513    0.119605    0.000008
      7          1           0        1.231594   -1.385957    0.865605
      8          1           0        1.231598   -1.385934   -0.865636
      9          1           0       -2.425554    0.593878   -0.885381
     10          1           0       -2.425551    0.593876    0.885389
     11          1           0       -3.084782   -0.811207    0.000004
     12          1           0        3.470553   -0.347620    0.000029
     13          1           0        2.419526    1.193986   -0.000016
 ---------------------------------------------------------------------

 SCF Done:  E(UM062X) =  -307.005115324     A.U. after    1 cycles

 The electronic state is 2-A.
 Alpha  occ. eigenvalues --  -19.67265 -19.61669 -10.67337 -10.59189 -10.55914
 Alpha  occ. eigenvalues --  -10.54569  -1.24300  -1.14797  -0.90032  -0.82564
 Alpha  occ. eigenvalues --   -0.72520  -0.64884  -0.59879  -0.58266  -0.56704
 Alpha  occ. eigenvalues --   -0.51805  -0.51650  -0.46834  -0.45801  -0.45167
 Alpha  occ. eigenvalues --   -0.43394  -0.38345  -0.36114  -0.26710
 Alpha virt. eigenvalues --    0.01238   0.02420   0.03754   0.04269   0.04861
 Alpha virt. eigenvalues --    0.05053   0.05747   0.07882   0.08156   0.09394
 Alpha virt. eigenvalues --    0.09656   0.09707   0.11681   0.12108   0.14955

  Beta  occ. eigenvalues --  -19.67256 -19.61677 -10.67333 -10.59190 -10.55980
  Beta  occ. eigenvalues --  -10.53878  -1.24287  -1.14798  -0.89036  -0.81780
  Beta  occ. eigenvalues --   -0.70017  -0.64400  -0.59480  -0.58064  -0.56625
  Beta  occ. eigenvalues --   -0.51303  -0.50696  -0.45985  -0.45099  -0.44558
  Beta  occ. eigenvalues --   -0.43283  -0.38273  -0.36111
  Beta virt. eigenvalues --   -0.02827   0.00930   0.02362   0.03670   0.04133
  Beta virt. eigenvalues --    0.04840   0.04909   0.05779   0.07712   0.08152
  Beta virt. eigenvalues --    0.08410   0.09585   0.09941   0.12084   0.12324

 Mulliken charges and spin densities:
               1          2
     1  O   -0.169165   0.001813
     2  O   -0.405945  -0.002508
     3  C   -0.014285  -0.088843
     4  C   -0.186138  -0.001184
     5  C    0.176940   0.026868
     6  C   -0.508235   1.062717
     7  H    0.151872   0.040806
     8  H    0.151872   0.040808
     9  H    0.139664   0.000331
    10  H    0.139664   0.000331
    11  H    0.132441  -0.000059
    12  H    0.181615  -0.040974
    13  H    0.209702  -0.040107
 Sum of Mulliken charges =  -0.00000   1.00000

 Dipole moment (field-independent basis, Debye):
    X=             -0.6456    Y=             -1.8237    Z=             -0.0000  Tot=              1.9346
 Quadrupole moment (field-independent basis, Debye-Ang):
   XX=            -30.3907   YY=            -40.0522   ZZ=            -36.4466
   XY=             -1.7541   XZ=             -0.0000   YZ=             -0.0000

  Exact polarizability:  66.536   1.347  53.172   0.000   0.000  42.698
 Approx polarizability:  62.824   1.916  67.440   0.000   0.000  52.316

                      1                      2                      3
                      A                      A                      A
 Frequencies --     55.2411               150.4499               175.9487
 Red. masses --      2.4669                 1.6237                 1.3770
 Frc consts  --      0.0044                 0.0217                 0.0251
 IR Inten    --      0.3434                 5.7555                 5.3711

                      4                      5                      6
                      A                      A                      A
 Frequencies --    182.8632               226.6323               357.0923
 Red. masses --      1.1159                 3.0923                 4.2392
 Frc consts  --      0.0220                 0.0936                 0.3185
 IR Inten    --      0.1936                 3.1463                18.3246

                      7                      8                      9
                      A                      A                      A
 Frequencies --    407.0559               463.2066               582.2044
 Red. masses --      1.1968                 4.1692                 2.5122
 Frc consts  --      0.1168                 0.5271                 0.5017
 IR Inten    --     46.2383                 0.6779                14.7564

                     10                     11                     12
                      A                      A                      A
 Frequencies --    660.1545               875.3350               917.0616
 Red. masses --      3.4490                 2.8735                 2.2898
 Frc consts  --      0.8856                 1.2972                 1.1346
 IR Inten    --      3.5320                12.9157                 3.4702

                     13                     14                     15
                      A                      A                      A
 Frequencies --   1019.5467              1057.3591              1137.8793
 Red. masses --      1.7090                 4.6529                 2.4999
 Frc consts  --      1.0467                 3.0649                 1.9071
 IR Inten    --      0.3806                13.1671                 2.4206

                     16                     17                     18
                      A                      A                      A
 Frequencies --   1187.7898              1197.2752              1218.6287
 Red. masses --      1.2668                 1.1827                 1.6164
 Frc consts  --      1.0531                 0.9989                 1.4143
 IR Inten    --      0.9401                 0.9678                39.1097

                     19                     20                     21
                      A                      A                      A
 Frequencies --   1259.4912              1401.2972              1443.3908
 Red. masses --      3.3644                 1.9603                 1.0778
 Frc consts  --      3.1445                 2.2679                 1.3229
 IR Inten    --    340.9935               109.4388                20.2951

                     22                     23                     24
                      A                      A                      A
 Frequencies --   1455.0600              1488.8506              1497.3419
 Red. masses --      1.2539                 1.2725                 1.0418
 Frc consts  --      1.5641                 1.6619                 1.3762
 IR Inten    --      2.1956                28.9996                 9.5491

                     25                     26                     27
                      A                      A                      A
 Frequencies --   1510.5317              1855.9974              3025.0319
 Red. masses --      1.0471                11.4593                 1.0604
 Frc consts  --      1.4077                23.2576                 5.7173
 IR Inten    --     10.8511               252.9754                 7.8523

                     28                     29                     30
                      A                      A                      A
 Frequencies --   3040.8605              3084.2306              3156.0107
 Red. masses --      1.0965                 1.0308                 1.1065
 Frc consts  --      5.9738                 5.7775                 6.4933
 IR Inten    --      1.8518                25.3002                13.5563

                     31                     32                     33
                      A                      A                      A
 Frequencies --   3192.3624              3193.7315              3305.9172
 Red. masses --      1.1060                 1.0503                 1.1206
 Frc consts  --      6.6409                 6.3120                 7.2159
 IR Inten    --     10.0915                 9.5365                 0.1835

 - Thermochemistry -
 -------------------
 Temperature   298.150 Kelvin.  Pressure   1.00000 Atm.
 Atom     1 has atomic number  8 and mass  15.99491

 Molecular mass:    87.04460 amu.
 Principal axes and moments of inertia in atomic units:
                           1         2         3
     Eigenvalues --   181.84732 799.35040 959.12565
           X            0.99993  -0.01213  -0.00000
           Y            0.01213   0.99993  -0.00000
           Z            0.00000   0.00000   1.00000
 This molecule is an asymmetric top.
 Rotational symmetry number  1.
 Rotational temperatures (Kelvin)      0.47630     0.10836     0.09031
 Rotational constants (GHZ):           9.92449     2.25776     1.88165
 Zero-point vibrational energy     273836.2 (Joules/Mol)
                                   65.44841 (Kcal/Mol)
 Warning -- explicit consideration of   9 degrees of freedom as
           vibrations may cause significant error
 Vibrational temperatures:     79.48   216.46   253.15   263.10   326.07
          (Kelvin)            513.78   585.66   666.45   837.66   949.82
                             1259.41  1319.45  1466.90  1521.30  1637.15
                             1708.96  1722.61  1753.33  1812.13  2016.15
                             2076.72  2093.51  2142.12  2154.34  2173.32
                             2670.37  4352.35  4375.12  4437.52  4540.80
                             4593.10  4595.07  4756.48

 Zero-point correction=                           0.104299 (Hartree/Particle)
 Thermal correction to Energy=                    0.111808
 Thermal correction to Enthalpy=                  0.112752
 Thermal correction to Gibbs Free Energy=         0.072182
 Sum of electronic and zero-point Energies=           -306.900817
 Sum of electronic and thermal Energies=              -306.893308
 Sum of electronic and thermal Enthalpies=            -306.892363
 Sum of electronic and thermal Free Energies=         -306.932933

                     E (Thermal)             CV                S
                      KCal/Mol        Cal/Mol-Kelvin    Cal/Mol-Kelvin
 Total                   70.160             24.948             85.387
 Electronic               0.000              0.000              1.377
 Translational            0.889              2.981             39.304
 Rotational               0.889              2.981             26.436
 Vibrational             68.383             18.986             18.269
 Vibration     1          0.596              1.975              4.620
 Vibration     2          0.618              1.902              2.667
 Vibration     3          0.628              1.872              2.371
 Vibration     4          0.630              1.863              2.299
 Vibration     5          0.650              1.800              1.905
 Vibration     6          0.732              1.561              1.135
 Vibration     7          0.772              1.455              0.937
 Vibration     8          0.821              1.332              0.757
 Vibration     9          0.939              1.070              0.481

                           ! Non-Optimized Parameters !
 Normal termination of Gaussian 16 at Wed Mar 13 04:39:39 2019.
