 Gaussian 16, Revision A.03,
 Gaussian 16:  EM64L-G16RevA.03 25-Dec-2016

 ----------------------------------------------
 #p m062x/6-311+g(2df,2p) Opt=(CalcFC,ModRedun)
 ----------------------------------------------

 ----------------------------------------
 Gaussian Input Prepared from Scan Object
 ----------------------------------------
 Symbolic Z-matrix:
 Charge =  0 Multiplicity = 2

 SCF Done:  E(UM062X) =  -307.003496626     A.U. after   15 cycles

  Exact polarizability:   0.000   0.000   0.000   0.000   0.000   0.000
 Approx polarizability:  62.930   1.661  66.676  -0.260  -2.900  55.494

 Optimization completed.
    -- Stationary point found.
 SCF Done:  E(UM062X) =  -307.002354711     A.U. after   10 cycles
 SCF Done:  E(UM062X) =  -307.003329068     A.U. after   10 cycles
 SCF Done:  E(UM062X) =  -307.003332089     A.U. after    8 cycles
 SCF Done:  E(UM062X) =  -307.003332090     A.U. after    7 cycles
 Optimization completed.
 SCF Done:  E(UM062X) =  -307.001891972     A.U. after   11 cycles
 SCF Done:  E(UM062X) =  -307.002912226     A.U. after   10 cycles
 SCF Done:  E(UM062X) =  -307.002916248     A.U. after    8 cycles
 SCF Done:  E(UM062X) =  -307.002916252     A.U. after    7 cycles
 SCF Done:  E(UM062X) =  -307.001313379     A.U. after   11 cycles
 SCF Done:  E(UM062X) =  -307.002414744     A.U. after    9 cycles
 SCF Done:  E(UM062X) =  -307.001815171     A.U. after   11 cycles
 SCF Done:  E(UM062X) =  -307.002923672     A.U. after   10 cycles
 SCF Done:  E(UM062X) =  -307.002925727     A.U. after    9 cycles
 SCF Done:  E(UM062X) =  -307.002297770     A.U. after   11 cycles
 SCF Done:  E(UM062X) =  -307.003333599     A.U. after   11 cycles
 SCF Done:  E(UM062X) =  -307.003339088     A.U. after    9 cycles
    -- Stationary point found.
 SCF Done:  E(UM062X) =  -307.002511725     A.U. after   10 cycles
 SCF Done:  E(UM062X) =  -307.003495281     A.U. after   10 cycles
 SCF Done:  E(UM062X) =  -307.003496617     A.U. after    9 cycles
 Optimization completed.
    -- Stationary point found.

                         Standard orientation:
 ---------------------------------------------------------------------
 Center     Atomic      Atomic             Coordinates (Angstroms)
 Number     Number       Type             X           Y           Z
 ---------------------------------------------------------------------
      1          8           0        0.754244   -0.664880    0.283056
      2          8           0        0.409009    1.468798   -0.295951
      3          6           0       -1.441246    0.160566    0.547722
      4          6           0        2.110681   -0.527127   -0.134554
      5          6           0       -0.004540    0.429789    0.135308
      6          6           0       -2.119964   -0.685330   -0.473648
      7          1           0       -1.423493   -0.343973    1.514812
      8          1           0       -1.926419    1.127823    0.651196
      9          1           0        2.606605    0.251140    0.441965
     10          1           0        2.155542   -0.267175   -1.190280
     11          1           0        2.577031   -1.490275    0.042670
     12          1           0       -2.611347   -0.225671   -1.316358
     13          1           0       -1.953520   -1.750606   -0.489816
 ---------------------------------------------------------------------

 The electronic state is 2-A.
 Alpha  occ. eigenvalues --  -19.67284 -19.61598 -10.67383 -10.59162 -10.55766
 Alpha  occ. eigenvalues --  -10.55723  -1.24266  -1.14753  -0.90329  -0.82163
 Alpha  occ. eigenvalues --   -0.73006  -0.65531  -0.58952  -0.57592  -0.57260
 Alpha  occ. eigenvalues --   -0.53612  -0.49867  -0.49074  -0.44872  -0.43941
 Alpha  occ. eigenvalues --   -0.43690  -0.38259  -0.36973  -0.27443
 Alpha virt. eigenvalues --    0.01475   0.02792   0.03248   0.04172   0.04899
 Alpha virt. eigenvalues --    0.05781   0.06260   0.06578   0.08026   0.09151
 Alpha virt. eigenvalues --    0.09338   0.10766   0.11492   0.13008   0.13680

  Beta  occ. eigenvalues --  -19.67268 -19.61567 -10.67272 -10.59162 -10.55810
  Beta  occ. eigenvalues --  -10.55052  -1.24172  -1.14662  -0.89088  -0.81484
  Beta  occ. eigenvalues --   -0.70180  -0.65288  -0.58401  -0.57364  -0.56964
  Beta  occ. eigenvalues --   -0.52834  -0.49298  -0.48593  -0.44352  -0.43553
  Beta  occ. eigenvalues --   -0.43387  -0.38133  -0.35978
  Beta virt. eigenvalues --   -0.03996   0.01006   0.02448   0.03196   0.04099
  Beta virt. eigenvalues --    0.04738   0.05925   0.06185   0.07350   0.08012
  Beta virt. eigenvalues --    0.08933   0.09298   0.10561   0.12277   0.12489

 Mulliken charges and spin densities:
               1          2
     1  O   -0.145683   0.007846
     2  O   -0.378628   0.016388
     3  C   -0.382875  -0.041489
     4  C   -0.192512   0.005002
     5  C    0.288317   0.013786
     6  C   -0.317923   1.051225
     7  H    0.178076   0.017246
     8  H    0.173274   0.009541
     9  H    0.140214   0.000334
    10  H    0.141599   0.000235
    11  H    0.133450  -0.000009
    12  H    0.182223  -0.039285
    13  H    0.180470  -0.040820
 Sum of Mulliken charges =  -0.00000   1.00000

 Dipole moment (field-independent basis, Debye):
    X=              0.1261    Y=             -1.7349    Z=              0.4639  Tot=              1.8003
 Quadrupole moment (field-independent basis, Debye-Ang):
   XX=            -31.8838   YY=            -40.6267   ZZ=            -35.6667
   XY=             -2.5251   XZ=             -0.0201   YZ=              1.7373

 Normal termination of Gaussian 16 at Mon Mar 11 22:16:19 2019.
