 Gaussian 16, Revision A.03,
 Gaussian 16:  EM64L-G16RevA.03 25-Dec-2016

 ----------------------------------------------------------------------
 #p m062x/6-311+g(2df,2p) opt=(calcfc,verytight,gdiis,maxcycles=900) fr
 eq iop(7/33=1,2/16=3)
 ----------------------------------------------------------------------

 ------------------------------
 Gaussian input prepared by ASE
 ------------------------------
 Symbolic Z-matrix:
 Charge =  0 Multiplicity = 1

 SCF Done:  E(RM062X) =  -359.524672633     A.U. after   13 cycles
 SCF Done:  E(RM062X) =  -359.556347755     A.U. after   13 cycles
 SCF Done:  E(RM062X) =  -359.579023219     A.U. after   14 cycles
 SCF Done:  E(RM062X) =  -359.580216284     A.U. after   12 cycles
 SCF Done:  E(RM062X) =  -359.583652769     A.U. after   12 cycles
 SCF Done:  E(RM062X) =  -359.584334300     A.U. after   11 cycles
 SCF Done:  E(RM062X) =  -359.584384979     A.U. after   11 cycles
 SCF Done:  E(RM062X) =  -359.584408188     A.U. after   10 cycles
 SCF Done:  E(RM062X) =  -359.584413073     A.U. after   10 cycles
 SCF Done:  E(RM062X) =  -359.584414767     A.U. after    8 cycles
 SCF Done:  E(RM062X) =  -359.584414835     A.U. after    6 cycles
 SCF Done:  E(RM062X) =  -359.584414836     A.U. after    5 cycles
 SCF Done:  E(RM062X) =  -359.584414836     A.U. after    3 cycles
 SCF Done:  E(RM062X) =  -359.584414836     A.U. after    3 cycles
 SCF Done:  E(RM062X) =  -359.584414836     A.U. after    2 cycles
 SCF Done:  E(RM062X) =  -359.584414836     A.U. after    2 cycles
 SCF Done:  E(RM062X) =  -359.584414836     A.U. after    2 cycles
 SCF Done:  E(RM062X) =  -359.584414836     A.U. after    4 cycles
 SCF Done:  E(RM062X) =  -359.584414836     A.U. after    4 cycles
 Optimization completed.
    -- Stationary point found.
 Normal termination of Gaussian 16 at Mon Mar  4 19:19:20 2019.

 ----------------------------------------------------------------------
 #P Geom=AllCheck Guess=TCheck SCRF=Check Test GenChk RM062X/6-311+G(2d
 f,2p) Freq
 ----------------------------------------------------------------------

 Structure from the checkpoint file:  "/scratch/underkoffler.c/gaussian_scratch/Gau-33992.chk"
 ------------------------------
 Gaussian input prepared by ASE
 ------------------------------
 Charge =  0 Multiplicity = 1

                         Standard orientation:
 ---------------------------------------------------------------------
 Center     Atomic      Atomic             Coordinates (Angstroms)
 Number     Number       Type             X           Y           Z
 ---------------------------------------------------------------------
      1          8           0       -2.548908   -0.094336   -0.064267
      2          8           0        1.232992    1.200043    0.121452
      3          8           0        2.070957   -0.853615   -0.157414
      4          7           0       -1.240460    0.319420   -0.366180
      5          6           0       -0.289389   -0.607821    0.215311
      6          6           0        1.131359   -0.137675    0.020480
      7          1           0       -0.394040   -1.579141   -0.260203
      8          1           0       -0.430757   -0.743697    1.300253
      9          1           0       -1.109147    1.250739    0.014965
     10          1           0       -2.636892   -0.142741    0.897467
     11          1           0        2.161901    1.435149   -0.002137
 ---------------------------------------------------------------------

 SCF Done:  E(RM062X) =  -359.584414836     A.U. after    1 cycles

 The electronic state is 1-A.
 Alpha  occ. eigenvalues --  -19.69124 -19.66585 -19.63430 -14.80344 -10.69591
 Alpha  occ. eigenvalues --  -10.59501  -1.26075  -1.20992  -1.16463  -0.96822
 Alpha  occ. eigenvalues --   -0.81993  -0.72442  -0.64043  -0.61010  -0.59407
 Alpha  occ. eigenvalues --   -0.58924  -0.53024  -0.51400  -0.48988  -0.47926
 Alpha  occ. eigenvalues --   -0.42072  -0.39966  -0.37217  -0.33073
 Alpha virt. eigenvalues --   -0.00193   0.01584   0.03389   0.03461   0.04713
 Alpha virt. eigenvalues --    0.06338   0.06866   0.07780   0.10707   0.11037
 Alpha virt. eigenvalues --    0.13397   0.14367   0.16872   0.17986   0.19092

 Mulliken charges:
               1
     1  O   -0.189526
     2  O   -0.335353
     3  O   -0.402873
     4  N   -0.272850
     5  C   -0.147444
     6  C    0.277044
     7  H    0.178100
     8  H    0.138082
     9  H    0.231037
    10  H    0.228756
    11  H    0.295028
 Sum of Mulliken charges =  -0.00000

 Dipole moment (field-independent basis, Debye):
    X=              0.1637    Y=              1.5589    Z=              2.7236  Tot=              3.1425
 Quadrupole moment (field-independent basis, Debye-Ang):
   XX=            -39.5729   YY=            -34.2891   ZZ=            -34.7075
   XY=              5.6253   XZ=             -5.1344   YZ=             -0.3259

  Exact polarizability:  55.905  -0.579  44.823  -2.521  -0.679  36.212
 Approx polarizability:  58.190  -2.370  54.010  -2.816  -0.032  45.147

                      1                      2                      3
                      A                      A                      A
 Frequencies --     64.9995               115.4235               213.9120
 Red. masses --      2.9397                 3.7347                 5.9027
 Frc consts  --      0.0073                 0.0293                 0.1591
 IR Inten    --      9.8574                 9.2345                 4.7792

                      4                      5                      6
                      A                      A                      A
 Frequencies --    377.6991               420.2100               451.6281
 Red. masses --      2.1214                 1.8128                 3.8197
 Frc consts  --      0.1783                 0.1886                 0.4590
 IR Inten    --     25.0105                96.7003                 3.6557

                      7                      8                      9
                      A                      A                      A
 Frequencies --    552.5801               624.9630               697.8562
 Red. masses --      1.5197                 2.6286                 2.5919
 Frc consts  --      0.2734                 0.6049                 0.7437
 IR Inten    --     46.5735                63.9428                76.3417

                     10                     11                     12
                      A                      A                      A
 Frequencies --    872.3165               918.5078              1021.4558
 Red. masses --      1.6847                 2.5490                 2.5930
 Frc consts  --      0.7553                 1.2670                 1.5940
 IR Inten    --     51.4011                25.8285                11.5265

                     13                     14                     15
                      A                      A                      A
 Frequencies --   1108.6381              1163.7747              1221.9781
 Red. masses --      2.2848                 3.8727                 2.0255
 Frc consts  --      1.6546                 3.0903                 1.7820
 IR Inten    --     30.4839                55.9480               161.8199

                     16                     17                     18
                      A                      A                      A
 Frequencies --   1258.0915              1339.8617              1387.2331
 Red. masses --      1.1819                 1.5190                 1.7440
 Frc consts  --      1.1022                 1.6066                 1.9774
 IR Inten    --      9.7875                15.1598                97.5777

                     19                     20                     21
                      A                      A                      A
 Frequencies --   1420.4828              1491.1851              1521.3430
 Red. masses --      1.5221                 1.1019                 1.1460
 Frc consts  --      1.8095                 1.4436                 1.5627
 IR Inten    --     21.4017                 2.8688                30.4909

                     22                     23                     24
                      A                      A                      A
 Frequencies --   1890.3727              2965.9432              3154.3404
 Red. masses --     10.5099                 1.0719                 1.0891
 Frc consts  --     22.1281                 5.5554                 6.3845
 IR Inten    --    384.5949                33.5485                 2.0636

                     25                     26                     27
                      A                      A                      A
 Frequencies --   3531.4101              3755.4414              3826.8299
 Red. masses --      1.0759                 1.0675                 1.0646
 Frc consts  --      7.9056                 8.8704                 9.1859
 IR Inten    --      8.0224                 5.1300               106.0775

 - Thermochemistry -
 -------------------
 Temperature   298.150 Kelvin.  Pressure   1.00000 Atm.
 Atom     1 has atomic number  8 and mass  15.99491

 Molecular mass:    91.02694 amu.
 Principal axes and moments of inertia in atomic units:
                           1         2         3
     Eigenvalues --   190.21393 905.974941055.94490
           X            0.99982   0.01476  -0.01207
           Y           -0.01496   0.99975  -0.01649
           Z            0.01182   0.01667   0.99979
 This molecule is an asymmetric top.
 Rotational symmetry number  1.
 Rotational temperatures (Kelvin)      0.45535     0.09560     0.08203
 Rotational constants (GHZ):           9.48796     1.99204     1.70912
 Zero-point vibrational energy     223513.1 (Joules/Mol)
                                   53.42092 (Kcal/Mol)
 Warning -- explicit consideration of   7 degrees of freedom as
           vibrations may cause significant error
 Vibrational temperatures:     93.52   166.07   307.77   543.42   604.59
          (Kelvin)            649.79   795.04   899.18  1004.06  1255.07
                             1321.53  1469.65  1595.08  1674.41  1758.15
                             1810.11  1927.76  1995.92  2043.76  2145.48
                             2188.87  2719.82  4267.33  4538.39  5080.91
                             5403.24  5505.95

 Zero-point correction=                           0.085132 (Hartree/Particle)
 Thermal correction to Energy=                    0.091596
 Thermal correction to Enthalpy=                  0.092541
 Thermal correction to Gibbs Free Energy=         0.054414
 Sum of electronic and zero-point Energies=           -359.499283
 Sum of electronic and thermal Energies=              -359.492818
 Sum of electronic and thermal Enthalpies=            -359.491874
 Sum of electronic and thermal Free Energies=         -359.530001

                     E (Thermal)             CV                S
                      KCal/Mol        Cal/Mol-Kelvin    Cal/Mol-Kelvin
 Total                   57.478             21.673             80.243
 Electronic               0.000              0.000              0.000
 Translational            0.889              2.981             39.438
 Rotational               0.889              2.981             26.701
 Vibrational             55.700             15.711             14.105
 Vibration     1          0.597              1.971              4.299
 Vibration     2          0.608              1.937              3.176
 Vibration     3          0.644              1.820              2.010
 Vibration     4          0.748              1.518              1.048
 Vibration     5          0.783              1.426              0.891
 Vibration     6          0.810              1.357              0.791
 Vibration     7          0.908              1.134              0.539

                           ! Non-Optimized Parameters !
 Normal termination of Gaussian 16 at Mon Mar  4 19:56:10 2019.
