 Gaussian 16, Revision A.03,
 Gaussian 16:  EM64L-G16RevA.03 25-Dec-2016

 ----------------------------------------------
 #p m062x/6-311+g(2df,2p) Opt=(CalcFC,ModRedun)
 ----------------------------------------------

 ----------------------------------------
 Gaussian Input Prepared from Scan Object
 ----------------------------------------
 Symbolic Z-matrix:
 Charge =  0 Multiplicity = 2

 SCF Done:  E(UM062X) =  -193.653867101     A.U. after   13 cycles

  Exact polarizability:   0.000   0.000   0.000   0.000   0.000   0.000
 Approx polarizability:  49.942  -0.257  46.058  -0.050   0.116  44.507

 Optimization completed.
    -- Stationary point found.
 SCF Done:  E(UM062X) =  -193.652632122     A.U. after   12 cycles
 SCF Done:  E(UM062X) =  -193.653706871     A.U. after   12 cycles
 SCF Done:  E(UM062X) =  -193.653710173     A.U. after    9 cycles
 SCF Done:  E(UM062X) =  -193.653710196     A.U. after    7 cycles
 Optimization completed.
 SCF Done:  E(UM062X) =  -193.652178949     A.U. after   12 cycles
 SCF Done:  E(UM062X) =  -193.653276058     A.U. after   12 cycles
 SCF Done:  E(UM062X) =  -193.653279533     A.U. after    8 cycles
 SCF Done:  E(UM062X) =  -193.651530990     A.U. after   12 cycles
 SCF Done:  E(UM062X) =  -193.652682816     A.U. after   12 cycles
 SCF Done:  E(UM062X) =  -193.652668380     A.U. after    8 cycles
 SCF Done:  E(UM062X) =  -193.652140662     A.U. after   12 cycles
 SCF Done:  E(UM062X) =  -193.653272279     A.U. after   12 cycles
 SCF Done:  E(UM062X) =  -193.653273903     A.U. after    9 cycles
 SCF Done:  E(UM062X) =  -193.652606254     A.U. after   12 cycles
 SCF Done:  E(UM062X) =  -193.653706784     A.U. after   12 cycles
 SCF Done:  E(UM062X) =  -193.653709016     A.U. after   10 cycles
    -- Stationary point found.
 SCF Done:  E(UM062X) =  -193.652783093     A.U. after   12 cycles
 SCF Done:  E(UM062X) =  -193.653862737     A.U. after   12 cycles
 SCF Done:  E(UM062X) =  -193.653867079     A.U. after   10 cycles
 Optimization completed.
    -- Stationary point found.

                         Standard orientation:
 ---------------------------------------------------------------------
 Center     Atomic      Atomic             Coordinates (Angstroms)
 Number     Number       Type             X           Y           Z
 ---------------------------------------------------------------------
      1          8           0        0.584771   -0.459775    0.004055
      2          6           0       -0.443724    0.516567    0.043915
      3          6           0       -1.775988   -0.190289   -0.029340
      4          6           0        1.837648    0.031696    0.033630
      5          1           0       -0.313604    1.203294   -0.798863
      6          1           0       -0.349560    1.092650    0.968829
      7          1           0       -1.852597   -0.761988   -0.952670
      8          1           0       -1.888866   -0.873370    0.810740
      9          1           0       -2.588022    0.534809    0.000194
     10          1           0        2.609659   -0.715011   -0.051566
     11          1           0        1.997206    1.049972   -0.298327
 ---------------------------------------------------------------------

 The electronic state is 2-A.
 Alpha  occ. eigenvalues --  -19.65522 -10.59171 -10.57540 -10.53048  -1.19534
 Alpha  occ. eigenvalues --   -0.87474  -0.75863  -0.70131  -0.57981  -0.56804
 Alpha  occ. eigenvalues --   -0.55241  -0.47136  -0.45906  -0.44051  -0.41043
 Alpha  occ. eigenvalues --   -0.39743  -0.23039
 Alpha virt. eigenvalues --    0.01926   0.03529   0.04107   0.04840   0.05876
 Alpha virt. eigenvalues --    0.07211   0.08350   0.09143   0.09735   0.11074
 Alpha virt. eigenvalues --    0.13515   0.15065   0.18408   0.18924   0.20112

  Beta  occ. eigenvalues --  -19.65088 -10.59179 -10.56847 -10.53049  -1.18138
  Beta  occ. eigenvalues --   -0.87068  -0.74173  -0.68847  -0.56844  -0.55544
  Beta  occ. eigenvalues --   -0.54283  -0.45905  -0.45160  -0.43628  -0.40374
  Beta  occ. eigenvalues --   -0.37607
  Beta virt. eigenvalues --   -0.01111   0.01686   0.03175   0.04048   0.05330
  Beta virt. eigenvalues --    0.05920   0.07073   0.08108   0.09220   0.09589
  Beta virt. eigenvalues --    0.11331   0.13430   0.13930   0.18478   0.19017

 Mulliken charges and spin densities:
               1          2
     1  O   -0.091946   0.058522
     2  C   -0.198861   0.025878
     3  C   -0.414246  -0.007550
     4  C   -0.296693   0.988083
     5  H    0.139047   0.003210
     6  H    0.149160   0.001370
     7  H    0.142114  -0.000325
     8  H    0.144247  -0.000039
     9  H    0.127892  -0.000361
    10  H    0.158350  -0.033800
    11  H    0.140935  -0.034989
 Sum of Mulliken charges =  -0.00000   1.00000

 Dipole moment (field-independent basis, Debye):
    X=             -0.8132    Y=              1.0901    Z=             -0.3453  Tot=              1.4032
 Quadrupole moment (field-independent basis, Debye-Ang):
   XX=            -24.7324   YY=            -26.1831   ZZ=            -27.2256
   XY=             -0.2288   XZ=             -0.9187   YZ=             -0.3213

 Normal termination of Gaussian 16 at Wed Mar 13 15:33:48 2019.
