 Gaussian 16, Revision A.03,
 Gaussian 16:  EM64L-G16RevA.03 25-Dec-2016

 ----------------------------------------------------------------------
 #p m062x/6-311+g(2df,2p) opt=(calcfc,verytight,gdiis,maxcycles=900) fr
 eq iop(7/33=1,2/16=3)
 ----------------------------------------------------------------------

 ------------------------------
 Gaussian input prepared by ASE
 ------------------------------
 Symbolic Z-matrix:
 Charge =  0 Multiplicity = 2

 SCF Done:  E(UM062X) =  -193.653559723     A.U. after   14 cycles
 SCF Done:  E(UM062X) =  -193.653568780     A.U. after   11 cycles
 SCF Done:  E(UM062X) =  -193.653568808     A.U. after    7 cycles
 SCF Done:  E(UM062X) =  -193.653568808     A.U. after    4 cycles
 SCF Done:  E(UM062X) =  -193.653568808     A.U. after    2 cycles
 SCF Done:  E(UM062X) =  -193.653568808     A.U. after    2 cycles
 Optimization completed.
    -- Stationary point found.
 Normal termination of Gaussian 16 at Mon Mar 11 15:46:33 2019.

 ----------------------------------------------------------------------
 #P Geom=AllCheck Guess=TCheck SCRF=Check Test GenChk UM062X/6-311+G(2d
 f,2p) Freq
 ----------------------------------------------------------------------

 Structure from the checkpoint file:  "/scratch/underkoffler.c/gaussian_scratch/Gau-4567.chk"
 ------------------------------
 Gaussian input prepared by ASE
 ------------------------------
 Charge =  0 Multiplicity = 2

                         Standard orientation:
 ---------------------------------------------------------------------
 Center     Atomic      Atomic             Coordinates (Angstroms)
 Number     Number       Type             X           Y           Z
 ---------------------------------------------------------------------
      1          8           0        0.716614    0.485565   -0.368858
      2          6           0       -0.540486    0.606537    0.278325
      3          6           0       -1.488783   -0.506740   -0.122982
      4          6           0        1.512529   -0.495353    0.100409
      5          1           0       -0.930616    1.577901   -0.019118
      6          1           0       -0.383940    0.617296    1.361900
      7          1           0       -1.631283   -0.507778   -1.202576
      8          1           0       -1.090459   -1.476375    0.172951
      9          1           0       -2.456897   -0.367513    0.357207
     10          1           0        2.471350   -0.555894   -0.387685
     11          1           0        1.389370   -0.798822    1.133677
 ---------------------------------------------------------------------

 SCF Done:  E(UM062X) =  -193.653568808     A.U. after    1 cycles

 The electronic state is 2-A.
 Alpha  occ. eigenvalues --  -19.65430 -10.59181 -10.57507 -10.52983  -1.19431
 Alpha  occ. eigenvalues --   -0.86925  -0.77352  -0.68989  -0.58262  -0.56904
 Alpha  occ. eigenvalues --   -0.53627  -0.49222  -0.45798  -0.43050  -0.41536
 Alpha  occ. eigenvalues --   -0.39500  -0.23005
 Alpha virt. eigenvalues --    0.01888   0.03642   0.03920   0.04236   0.06818
 Alpha virt. eigenvalues --    0.07350   0.07952   0.08412   0.08695   0.11804
 Alpha virt. eigenvalues --    0.12655   0.13727   0.17734   0.19335   0.19706

  Beta  occ. eigenvalues --  -19.64987 -10.59189 -10.56808 -10.52972  -1.18021
  Beta  occ. eigenvalues --   -0.86549  -0.75659  -0.67562  -0.57607  -0.55810
  Beta  occ. eigenvalues --   -0.51359  -0.48690  -0.45399  -0.42689  -0.39696
  Beta  occ. eigenvalues --   -0.37852
  Beta virt. eigenvalues --   -0.00707   0.01647   0.03545   0.03867   0.04303
  Beta virt. eigenvalues --    0.06848   0.07357   0.07963   0.08633   0.08832
  Beta virt. eigenvalues --    0.10990   0.12650   0.13834   0.17942   0.19397

 Mulliken charges and spin densities:
               1          2
     1  O   -0.087371   0.068882
     2  C   -0.251702   0.027645
     3  C   -0.326094   0.003488
     4  C   -0.335884   0.983654
     5  H    0.147249  -0.000345
     6  H    0.141705   0.000265
     7  H    0.145261  -0.000074
     8  H    0.137382  -0.007859
     9  H    0.126352  -0.001532
    10  H    0.160287  -0.034262
    11  H    0.142814  -0.039863
 Sum of Mulliken charges =  -0.00000   1.00000

 Dipole moment (field-independent basis, Debye):
    X=             -1.0332    Y=             -0.0613    Z=              1.0056  Tot=              1.4431
 Quadrupole moment (field-independent basis, Debye-Ang):
   XX=            -24.8997   YY=            -27.2402   ZZ=            -26.2672
   XY=             -1.3956   XZ=              0.2966   YZ=             -0.0301

  Exact polarizability:  49.705  -2.593  40.947   0.537   0.913  38.629
 Approx polarizability:  49.036  -2.510  46.059  -0.213  -0.476  45.594

                      1                      2                      3
                      A                      A                      A
 Frequencies --    124.4782               235.2055               268.7968
 Red. masses --      2.0541                 1.1031                 1.2227
 Frc consts  --      0.0188                 0.0360                 0.0521
 IR Inten    --      2.4825                 0.4062                 4.7610

                      4                      5                      6
                      A                      A                      A
 Frequencies --    401.2252               490.1743               610.3688
 Red. masses --      2.3481                 2.3921                 1.3042
 Frc consts  --      0.2227                 0.3386                 0.2863
 IR Inten    --      3.6815                 7.2993                44.3552

                      7                      8                      9
                      A                      A                      A
 Frequencies --    812.5269               881.3129              1045.6386
 Red. masses --      1.1001                 2.2328                 2.7550
 Frc consts  --      0.4279                 1.0218                 1.7747
 IR Inten    --      1.0911                 7.0594                25.2029

                     10                     11                     12
                      A                      A                      A
 Frequencies --   1115.9538              1154.6785              1236.7194
 Red. masses --      2.0244                 1.3968                 1.6328
 Frc consts  --      1.4854                 1.0973                 1.4714
 IR Inten    --      8.1566                 3.6750                13.0883

                     13                     14                     15
                      A                      A                      A
 Frequencies --   1294.4453              1348.9490              1399.8379
 Red. masses --      2.7483                 1.3742                 1.2337
 Frc consts  --      2.7132                 1.4733                 1.4243
 IR Inten    --    155.8735                70.6356                 3.1159

                     16                     17                     18
                      A                      A                      A
 Frequencies --   1420.2912              1484.5153              1490.2691
 Red. masses --      1.3104                 1.1254                 1.0759
 Frc consts  --      1.5574                 1.4612                 1.4079
 IR Inten    --     15.1930                 7.1685                 3.5607

                     19                     20                     21
                      A                      A                      A
 Frequencies --   1502.8469              1527.3135              3039.6813
 Red. masses --      1.0603                 1.1301                 1.0691
 Frc consts  --      1.4109                 1.5532                 5.8200
 IR Inten    --      0.0752                 8.8690                39.0996

                     22                     23                     24
                      A                      A                      A
 Frequencies --   3071.6874              3123.8972              3132.2061
 Red. masses --      1.0346                 1.0955                 1.0502
 Frc consts  --      5.7516                 6.2986                 6.0706
 IR Inten    --      9.1988                10.6402                17.4195

                     25                     26                     27
                      A                      A                      A
 Frequencies --   3147.6608              3153.3966              3284.0859
 Red. masses --      1.1018                 1.1036                 1.1194
 Frc consts  --      6.4316                 6.4660                 7.1135
 IR Inten    --     19.0577                24.1091                 8.1846

 - Thermochemistry -
 -------------------
 Temperature   298.150 Kelvin.  Pressure   1.00000 Atm.
 Atom     1 has atomic number  8 and mass  15.99491

 Molecular mass:    59.04969 amu.
 Principal axes and moments of inertia in atomic units:
                           1         2         3
     Eigenvalues --   103.20755 332.29064 376.29704
           X            0.99985  -0.01240   0.01200
           Y            0.01211   0.99964   0.02401
           Z           -0.01229  -0.02386   0.99964
 This molecule is an asymmetric top.
 Rotational symmetry number  1.
 Rotational temperatures (Kelvin)      0.83922     0.26066     0.23017
 Rotational constants (GHZ):          17.48652     5.43121     4.79605
 Zero-point vibrational energy     250008.5 (Joules/Mol)
                                   59.75347 (Kcal/Mol)
 Warning -- explicit consideration of   6 degrees of freedom as
           vibrations may cause significant error
 Vibrational temperatures:    179.10   338.41   386.74   577.27   705.25
          (Kelvin)            878.18  1169.04  1268.01  1504.44  1605.61
                             1661.32  1779.36  1862.42  1940.84  2014.05
                             2043.48  2135.89  2144.16  2162.26  2197.46
                             4373.42  4419.47  4494.59  4506.55  4528.78
                             4537.03  4725.07

 Zero-point correction=                           0.095223 (Hartree/Particle)
 Thermal correction to Energy=                    0.100683
 Thermal correction to Enthalpy=                  0.101627
 Thermal correction to Gibbs Free Energy=         0.067017
 Sum of electronic and zero-point Energies=           -193.558346
 Sum of electronic and thermal Energies=              -193.552886
 Sum of electronic and thermal Enthalpies=            -193.551942
 Sum of electronic and thermal Free Energies=         -193.586552

                     E (Thermal)             CV                S
                      KCal/Mol        Cal/Mol-Kelvin    Cal/Mol-Kelvin
 Total                   63.179             18.109             72.843
 Electronic               0.000              0.000              1.377
 Translational            0.889              2.981             38.148
 Rotational               0.889              2.981             24.071
 Vibrational             61.402             12.147              9.247
 Vibration     1          0.610              1.929              3.030
 Vibration     2          0.655              1.787              1.839
 Vibration     3          0.673              1.731              1.604
 Vibration     4          0.767              1.467              0.958
 Vibration     5          0.846              1.272              0.683
 Vibration     6          0.969              1.010              0.432

 Optimization completed.
    -- Stationary point found.
 Normal termination of Gaussian 16 at Mon Mar 11 15:49:13 2019.
