 Gaussian 16, Revision A.03,
 Gaussian 16:  EM64L-G16RevA.03 25-Dec-2016

 ----------------------------------------------
 #p m062x/6-311+g(2df,2p) Opt=(CalcFC,ModRedun)
 ----------------------------------------------

 ----------------------------------------
 Gaussian Input Prepared from Scan Object
 ----------------------------------------
 Symbolic Z-matrix:
 Charge =  0 Multiplicity = 2

 SCF Done:  E(UM062X) =  -193.653568808     A.U. after   14 cycles

  Exact polarizability:   0.000   0.000   0.000   0.000   0.000   0.000
 Approx polarizability:  49.036  -2.510  46.059  -0.213  -0.476  45.594

 Optimization completed.
    -- Stationary point found.
 SCF Done:  E(UM062X) =  -193.653276478     A.U. after   12 cycles
 SCF Done:  E(UM062X) =  -193.653355055     A.U. after   10 cycles
 SCF Done:  E(UM062X) =  -193.653355223     A.U. after    8 cycles
 Optimization completed.
 SCF Done:  E(UM062X) =  -193.652555585     A.U. after   12 cycles
 SCF Done:  E(UM062X) =  -193.652654941     A.U. after   11 cycles
 SCF Done:  E(UM062X) =  -193.652655179     A.U. after    8 cycles
 SCF Done:  E(UM062X) =  -193.651306424     A.U. after   12 cycles
 SCF Done:  E(UM062X) =  -193.651437492     A.U. after   12 cycles
 SCF Done:  E(UM062X) =  -193.651438137     A.U. after   10 cycles
 SCF Done:  E(UM062X) =  -193.652974025     A.U. after   10 cycles
 SCF Done:  E(UM062X) =  -193.652974341     A.U. after   10 cycles
 SCF Done:  E(UM062X) =  -193.652974492     A.U. after    9 cycles
 SCF Done:  E(UM062X) =  -193.653319322     A.U. after   12 cycles
 SCF Done:  E(UM062X) =  -193.653344123     A.U. after   12 cycles
 SCF Done:  E(UM062X) =  -193.653389910     A.U. after   11 cycles
 SCF Done:  E(UM062X) =  -193.653390616     A.U. after    8 cycles
    -- Stationary point found.
 SCF Done:  E(UM062X) =  -193.653508165     A.U. after   12 cycles
 SCF Done:  E(UM062X) =  -193.653568514     A.U. after    9 cycles
 SCF Done:  E(UM062X) =  -193.653568800     A.U. after    8 cycles
 Optimization completed.
    -- Stationary point found.

                         Standard orientation:
 ---------------------------------------------------------------------
 Center     Atomic      Atomic             Coordinates (Angstroms)
 Number     Number       Type             X           Y           Z
 ---------------------------------------------------------------------
      1          8           0        0.716544    0.485347   -0.369003
      2          6           0       -0.540476    0.606472    0.278352
      3          6           0       -1.488947   -0.506657   -0.122931
      4          6           0        1.512732   -0.495251    0.100430
      5          1           0       -0.930516    1.577905   -0.018989
      6          1           0       -0.383811    0.617145    1.361905
      7          1           0       -1.631642   -0.507547   -1.202499
      8          1           0       -1.090675   -1.476372    0.172804
      9          1           0       -2.456965   -0.367408    0.357448
     10          1           0        2.471601   -0.555588   -0.387596
     11          1           0        1.389806   -0.798290    1.133849
 ---------------------------------------------------------------------

 The electronic state is 2-A.
 Alpha  occ. eigenvalues --  -19.65430 -10.59181 -10.57507 -10.52983  -1.19431
 Alpha  occ. eigenvalues --   -0.86926  -0.77351  -0.68990  -0.58261  -0.56904
 Alpha  occ. eigenvalues --   -0.53626  -0.49223  -0.45798  -0.43049  -0.41536
 Alpha  occ. eigenvalues --   -0.39501  -0.23005
 Alpha virt. eigenvalues --    0.01888   0.03642   0.03920   0.04236   0.06818
 Alpha virt. eigenvalues --    0.07350   0.07952   0.08412   0.08695   0.11803
 Alpha virt. eigenvalues --    0.12654   0.13727   0.17736   0.19335   0.19707

  Beta  occ. eigenvalues --  -19.64987 -10.59190 -10.56808 -10.52972  -1.18021
  Beta  occ. eigenvalues --   -0.86550  -0.75658  -0.67563  -0.57607  -0.55811
  Beta  occ. eigenvalues --   -0.51358  -0.48691  -0.45399  -0.42688  -0.39696
  Beta  occ. eigenvalues --   -0.37853
  Beta virt. eigenvalues --   -0.00707   0.01648   0.03545   0.03867   0.04303
  Beta virt. eigenvalues --    0.06848   0.07358   0.07963   0.08633   0.08832
  Beta virt. eigenvalues --    0.10989   0.12650   0.13834   0.17943   0.19398

 Mulliken charges and spin densities:
               1          2
     1  O   -0.087349   0.068908
     2  C   -0.251646   0.027657
     3  C   -0.326124   0.003475
     4  C   -0.335868   0.983607
     5  H    0.147254  -0.000343
     6  H    0.141686   0.000260
     7  H    0.145255  -0.000072
     8  H    0.137390  -0.007862
     9  H    0.126346  -0.001532
    10  H    0.160273  -0.034249
    11  H    0.142783  -0.039849
 Sum of Mulliken charges =  -0.00000   1.00000

 Dipole moment (field-independent basis, Debye):
    X=             -1.0331    Y=             -0.0605    Z=              1.0059  Tot=              1.4432
 Quadrupole moment (field-independent basis, Debye-Ang):
   XX=            -24.8987   YY=            -27.2407   ZZ=            -26.2672
   XY=             -1.3943   XZ=              0.2971   YZ=             -0.0297

 Normal termination of Gaussian 16 at Tue Mar 12 01:50:44 2019.
