 Gaussian 16, Revision A.03,
 Gaussian 16:  EM64L-G16RevA.03 25-Dec-2016

 ----------------------------------------------
 #p m062x/6-311+g(2df,2p) Opt=(CalcFC,ModRedun)
 ----------------------------------------------

 ----------------------------------------
 Gaussian Input Prepared from Scan Object
 ----------------------------------------
 Symbolic Z-matrix:
 Charge =  0 Multiplicity = 2

 SCF Done:  E(UM062X) =  -193.653568808     A.U. after   14 cycles

  Exact polarizability:   0.000   0.000   0.000   0.000   0.000   0.000
 Approx polarizability:  49.036  -2.510  46.059  -0.213  -0.476  45.594

 Optimization completed.
    -- Stationary point found.
 SCF Done:  E(UM062X) =  -193.652101436     A.U. after   11 cycles
 SCF Done:  E(UM062X) =  -193.653278031     A.U. after   11 cycles
 SCF Done:  E(UM062X) =  -193.653300165     A.U. after    9 cycles
 Optimization completed.
 SCF Done:  E(UM062X) =  -193.651309360     A.U. after   11 cycles
 SCF Done:  E(UM062X) =  -193.652527794     A.U. after   11 cycles
 SCF Done:  E(UM062X) =  -193.652554097     A.U. after    9 cycles
 SCF Done:  E(UM062X) =  -193.652554142     A.U. after    7 cycles
 SCF Done:  E(UM062X) =  -193.650154191     A.U. after   11 cycles
 SCF Done:  E(UM062X) =  -193.651441537     A.U. after   11 cycles
 SCF Done:  E(UM062X) =  -193.652505938     A.U. after   11 cycles
 SCF Done:  E(UM062X) =  -193.652522519     A.U. after    9 cycles
 SCF Done:  E(UM062X) =  -193.652047674     A.U. after   11 cycles
 SCF Done:  E(UM062X) =  -193.653284233     A.U. after   11 cycles
 SCF Done:  E(UM062X) =  -193.653297133     A.U. after    9 cycles
 SCF Done:  E(UM062X) =  -193.653297210     A.U. after    7 cycles
    -- Stationary point found.
 SCF Done:  E(UM062X) =  -193.652370929     A.U. after   11 cycles
 SCF Done:  E(UM062X) =  -193.653551716     A.U. after   11 cycles
 SCF Done:  E(UM062X) =  -193.653568669     A.U. after    9 cycles
 SCF Done:  E(UM062X) =  -193.653568802     A.U. after    8 cycles
 Optimization completed.
    -- Stationary point found.

                         Standard orientation:
 ---------------------------------------------------------------------
 Center     Atomic      Atomic             Coordinates (Angstroms)
 Number     Number       Type             X           Y           Z
 ---------------------------------------------------------------------
      1          8           0        0.716553    0.485434   -0.368977
      2          6           0       -0.540460    0.606495    0.278352
      3          6           0       -1.488886   -0.506670   -0.122970
      4          6           0        1.512637   -0.495269    0.100451
      5          1           0       -0.930443    1.577987   -0.018867
      6          1           0       -0.383815    0.616989    1.361911
      7          1           0       -1.631500   -0.507687   -1.202547
      8          1           0       -1.090518   -1.476305    0.172916
      9          1           0       -2.456939   -0.367475    0.357341
     10          1           0        2.471392   -0.555855   -0.387766
     11          1           0        1.389654   -0.798463    1.133821
 ---------------------------------------------------------------------

 The electronic state is 2-A.
 Alpha  occ. eigenvalues --  -19.65430 -10.59181 -10.57507 -10.52983  -1.19431
 Alpha  occ. eigenvalues --   -0.86925  -0.77352  -0.68990  -0.58262  -0.56904
 Alpha  occ. eigenvalues --   -0.53626  -0.49222  -0.45798  -0.43050  -0.41536
 Alpha  occ. eigenvalues --   -0.39501  -0.23004
 Alpha virt. eigenvalues --    0.01888   0.03643   0.03920   0.04236   0.06818
 Alpha virt. eigenvalues --    0.07350   0.07952   0.08412   0.08695   0.11804
 Alpha virt. eigenvalues --    0.12654   0.13727   0.17735   0.19335   0.19707

  Beta  occ. eigenvalues --  -19.64987 -10.59189 -10.56808 -10.52972  -1.18021
  Beta  occ. eigenvalues --   -0.86549  -0.75658  -0.67563  -0.57607  -0.55811
  Beta  occ. eigenvalues --   -0.51358  -0.48691  -0.45399  -0.42688  -0.39697
  Beta  occ. eigenvalues --   -0.37852
  Beta virt. eigenvalues --   -0.00707   0.01648   0.03545   0.03867   0.04303
  Beta virt. eigenvalues --    0.06848   0.07357   0.07963   0.08633   0.08832
  Beta virt. eigenvalues --    0.10990   0.12650   0.13834   0.17943   0.19398

 Mulliken charges and spin densities:
               1          2
     1  O   -0.087354   0.068890
     2  C   -0.251672   0.027662
     3  C   -0.326102   0.003481
     4  C   -0.335878   0.983647
     5  H    0.147241  -0.000344
     6  H    0.141690   0.000259
     7  H    0.145252  -0.000073
     8  H    0.137384  -0.007863
     9  H    0.126348  -0.001532
    10  H    0.160285  -0.034263
    11  H    0.142805  -0.039864
 Sum of Mulliken charges =  -0.00000   1.00000

 Dipole moment (field-independent basis, Debye):
    X=             -1.0331    Y=             -0.0610    Z=              1.0058  Tot=              1.4431
 Quadrupole moment (field-independent basis, Debye-Ang):
   XX=            -24.8996   YY=            -27.2404   ZZ=            -26.2670
   XY=             -1.3951   XZ=              0.2965   YZ=             -0.0298

 Normal termination of Gaussian 16 at Mon Mar 11 20:41:42 2019.
