 Gaussian 16, Revision A.03,
 Gaussian 16:  EM64L-G16RevA.03 25-Dec-2016

 ----------------------------------------------
 #p m062x/6-311+g(2df,2p) Opt=(CalcFC,ModRedun)
 ----------------------------------------------

 ----------------------------------------
 Gaussian Input Prepared from Scan Object
 ----------------------------------------
 Symbolic Z-matrix:
 Charge =  0 Multiplicity = 2

 SCF Done:  E(UM062X) =  -193.653867101     A.U. after   13 cycles

  Exact polarizability:   0.000   0.000   0.000   0.000   0.000   0.000
 Approx polarizability:  49.942  -0.257  46.058  -0.050   0.116  44.507

 Optimization completed.
    -- Stationary point found.
 SCF Done:  E(UM062X) =  -193.652383479     A.U. after   12 cycles
 SCF Done:  E(UM062X) =  -193.653551293     A.U. after   11 cycles
 SCF Done:  E(UM062X) =  -193.653570207     A.U. after    9 cycles
 Optimization completed.
 SCF Done:  E(UM062X) =  -193.651510338     A.U. after   12 cycles
 SCF Done:  E(UM062X) =  -193.652722608     A.U. after   11 cycles
 SCF Done:  E(UM062X) =  -193.652747350     A.U. after    9 cycles
 SCF Done:  E(UM062X) =  -193.650231119     A.U. after   11 cycles
 SCF Done:  E(UM062X) =  -193.651547062     A.U. after   11 cycles
 SCF Done:  E(UM062X) =  -193.651583401     A.U. after    9 cycles
 SCF Done:  E(UM062X) =  -193.651559298     A.U. after    9 cycles
 SCF Done:  E(UM062X) =  -193.651309478     A.U. after   12 cycles
 SCF Done:  E(UM062X) =  -193.652724798     A.U. after   11 cycles
 SCF Done:  E(UM062X) =  -193.652742874     A.U. after    9 cycles
 SCF Done:  E(UM062X) =  -193.652284001     A.U. after   12 cycles
 SCF Done:  E(UM062X) =  -193.653560624     A.U. after   11 cycles
 SCF Done:  E(UM062X) =  -193.653572490     A.U. after    9 cycles
    -- Stationary point found.
 SCF Done:  E(UM062X) =  -193.652661692     A.U. after   12 cycles
 SCF Done:  E(UM062X) =  -193.653854650     A.U. after   11 cycles
 SCF Done:  E(UM062X) =  -193.653867077     A.U. after    9 cycles
 Optimization completed.
    -- Stationary point found.

                         Standard orientation:
 ---------------------------------------------------------------------
 Center     Atomic      Atomic             Coordinates (Angstroms)
 Number     Number       Type             X           Y           Z
 ---------------------------------------------------------------------
      1          8           0        0.584783   -0.459803    0.003850
      2          6           0       -0.443754    0.516579    0.043657
      3          6           0       -1.775936   -0.190312   -0.029198
      4          6           0        1.837616    0.031700    0.033880
      5          1           0       -0.313646    1.203499   -0.798972
      6          1           0       -0.349770    1.092468    0.968735
      7          1           0       -1.852856   -0.762331   -0.952317
      8          1           0       -1.888480   -0.873160    0.811128
      9          1           0       -2.587865    0.534927    0.000282
     10          1           0        2.609677   -0.714896   -0.051921
     11          1           0        1.997112    1.050111   -0.297770
 ---------------------------------------------------------------------

 The electronic state is 2-A.
 Alpha  occ. eigenvalues --  -19.65522 -10.59171 -10.57540 -10.53048  -1.19533
 Alpha  occ. eigenvalues --   -0.87475  -0.75862  -0.70131  -0.57980  -0.56804
 Alpha  occ. eigenvalues --   -0.55241  -0.47135  -0.45908  -0.44050  -0.41041
 Alpha  occ. eigenvalues --   -0.39745  -0.23040
 Alpha virt. eigenvalues --    0.01925   0.03528   0.04107   0.04840   0.05876
 Alpha virt. eigenvalues --    0.07212   0.08350   0.09143   0.09735   0.11074
 Alpha virt. eigenvalues --    0.13515   0.15065   0.18409   0.18923   0.20114

  Beta  occ. eigenvalues --  -19.65088 -10.59180 -10.56847 -10.53049  -1.18138
  Beta  occ. eigenvalues --   -0.87070  -0.74171  -0.68847  -0.56844  -0.55543
  Beta  occ. eigenvalues --   -0.54283  -0.45905  -0.45159  -0.43627  -0.40373
  Beta  occ. eigenvalues --   -0.37609
  Beta virt. eigenvalues --   -0.01111   0.01686   0.03175   0.04048   0.05330
  Beta virt. eigenvalues --    0.05920   0.07073   0.08107   0.09220   0.09589
  Beta virt. eigenvalues --    0.11331   0.13429   0.13929   0.18478   0.19016

 Mulliken charges and spin densities:
               1          2
     1  O   -0.091961   0.058544
     2  C   -0.198830   0.025859
     3  C   -0.414238  -0.007540
     4  C   -0.296657   0.988025
     5  H    0.139053   0.003209
     6  H    0.149169   0.001375
     7  H    0.142102  -0.000326
     8  H    0.144261  -0.000038
     9  H    0.127883  -0.000361
    10  H    0.158324  -0.033778
    11  H    0.140893  -0.034968
 Sum of Mulliken charges =  -0.00000   1.00000

 Dipole moment (field-independent basis, Debye):
    X=             -0.8135    Y=              1.0903    Z=             -0.3455  Tot=              1.4036
 Quadrupole moment (field-independent basis, Debye-Ang):
   XX=            -24.7336   YY=            -26.1826   ZZ=            -27.2259
   XY=             -0.2289   XZ=             -0.9195   YZ=             -0.3212

 Normal termination of Gaussian 16 at Tue Apr 23 22:39:07 2019.
