 Gaussian 16, Revision A.03,
 Gaussian 16:  EM64L-G16RevA.03 25-Dec-2016

 ----------------------------------------------
 #p m062x/6-311+g(2df,2p) Opt=(CalcFC,ModRedun)
 ----------------------------------------------

 ----------------------------------------
 Gaussian Input Prepared from Scan Object
 ----------------------------------------
 Symbolic Z-matrix:
 Charge =  0 Multiplicity = 2

 SCF Done:  E(UM062X) =  -193.653867101     A.U. after   13 cycles

  Exact polarizability:   0.000   0.000   0.000   0.000   0.000   0.000
 Approx polarizability:  49.942  -0.257  46.058  -0.050   0.116  44.507

 Optimization completed.
    -- Stationary point found.
 SCF Done:  E(UM062X) =  -193.653679626     A.U. after   12 cycles
 SCF Done:  E(UM062X) =  -193.653734362     A.U. after   10 cycles
 SCF Done:  E(UM062X) =  -193.653734705     A.U. after    8 cycles
 SCF Done:  E(UM062X) =  -193.653734745     A.U. after    7 cycles
 Optimization completed.
 SCF Done:  E(UM062X) =  -193.653396937     A.U. after   12 cycles
 SCF Done:  E(UM062X) =  -193.653460140     A.U. after   11 cycles
 SCF Done:  E(UM062X) =  -193.653468266     A.U. after   10 cycles
 SCF Done:  E(UM062X) =  -193.653469820     A.U. after    9 cycles
 SCF Done:  E(UM062X) =  -193.653469891     A.U. after    8 cycles
 SCF Done:  E(UM062X) =  -193.652972305     A.U. after   12 cycles
 SCF Done:  E(UM062X) =  -193.653069170     A.U. after   11 cycles
 SCF Done:  E(UM062X) =  -193.653069775     A.U. after    8 cycles
 SCF Done:  E(UM062X) =  -193.653069833     A.U. after    8 cycles
 SCF Done:  E(UM062X) =  -193.653609647     A.U. after   12 cycles
 SCF Done:  E(UM062X) =  -193.653688017     A.U. after   10 cycles
 SCF Done:  E(UM062X) =  -193.653688298     A.U. after    8 cycles
    -- Stationary point found.
 SCF Done:  E(UM062X) =  -193.653802610     A.U. after   12 cycles
 SCF Done:  E(UM062X) =  -193.653866724     A.U. after   10 cycles
 SCF Done:  E(UM062X) =  -193.653867090     A.U. after    8 cycles
 Optimization completed.
    -- Stationary point found.

                         Standard orientation:
 ---------------------------------------------------------------------
 Center     Atomic      Atomic             Coordinates (Angstroms)
 Number     Number       Type             X           Y           Z
 ---------------------------------------------------------------------
      1          8           0        0.584742   -0.459819    0.004337
      2          6           0       -0.443729    0.516658    0.043944
      3          6           0       -1.775881   -0.190332   -0.029466
      4          6           0        1.837604    0.031708    0.033641
      5          1           0       -0.313456    1.203453   -0.798738
      6          1           0       -0.349816    1.092761    0.968911
      7          1           0       -1.852195   -0.762366   -0.952617
      8          1           0       -1.888850   -0.873155    0.810815
      9          1           0       -2.587999    0.534694   -0.000485
     10          1           0        2.609504   -0.714996   -0.052676
     11          1           0        1.996911    1.049953   -0.298626
 ---------------------------------------------------------------------

 The electronic state is 2-A.
 Alpha  occ. eigenvalues --  -19.65523 -10.59171 -10.57540 -10.53048  -1.19533
 Alpha  occ. eigenvalues --   -0.87474  -0.75862  -0.70132  -0.57980  -0.56803
 Alpha  occ. eigenvalues --   -0.55240  -0.47134  -0.45907  -0.44049  -0.41043
 Alpha  occ. eigenvalues --   -0.39746  -0.23042
 Alpha virt. eigenvalues --    0.01925   0.03528   0.04107   0.04840   0.05876
 Alpha virt. eigenvalues --    0.07212   0.08350   0.09142   0.09734   0.11073
 Alpha virt. eigenvalues --    0.13515   0.15065   0.18407   0.18925   0.20111

  Beta  occ. eigenvalues --  -19.65089 -10.59180 -10.56847 -10.53049  -1.18137
  Beta  occ. eigenvalues --   -0.87068  -0.74171  -0.68849  -0.56844  -0.55542
  Beta  occ. eigenvalues --   -0.54283  -0.45903  -0.45159  -0.43626  -0.40375
  Beta  occ. eigenvalues --   -0.37609
  Beta virt. eigenvalues --   -0.01111   0.01686   0.03175   0.04048   0.05330
  Beta virt. eigenvalues --    0.05921   0.07073   0.08107   0.09220   0.09589
  Beta virt. eigenvalues --    0.11330   0.13429   0.13930   0.18477   0.19017

 Mulliken charges and spin densities:
               1          2
     1  O   -0.091938   0.058564
     2  C   -0.198863   0.025863
     3  C   -0.414231  -0.007547
     4  C   -0.296610   0.987966
     5  H    0.139038   0.003210
     6  H    0.149187   0.001369
     7  H    0.142113  -0.000325
     8  H    0.144258  -0.000040
     9  H    0.127885  -0.000361
    10  H    0.158300  -0.033756
    11  H    0.140860  -0.034943
 Sum of Mulliken charges =  -0.00000   1.00000

 Dipole moment (field-independent basis, Debye):
    X=             -0.8136    Y=              1.0903    Z=             -0.3467  Tot=              1.4039
 Quadrupole moment (field-independent basis, Debye-Ang):
   XX=            -24.7348   YY=            -26.1827   ZZ=            -27.2250
   XY=             -0.2293   XZ=             -0.9218   YZ=             -0.3204

 Normal termination of Gaussian 16 at Wed Mar 13 15:42:49 2019.
