 Gaussian 16, Revision A.03,
 Gaussian 16:  EM64L-G16RevA.03 25-Dec-2016

 ----------------------------------------------
 #p m062x/6-311+g(2df,2p) Opt=(CalcFC,ModRedun)
 ----------------------------------------------

 ----------------------------------------
 Gaussian Input Prepared from Scan Object
 ----------------------------------------
 Symbolic Z-matrix:
 Charge =  0 Multiplicity = 2

 SCF Done:  E(UM062X) =  -193.653867101     A.U. after   13 cycles

  Exact polarizability:   0.000   0.000   0.000   0.000   0.000   0.000
 Approx polarizability:  49.942  -0.257  46.058  -0.050   0.116  44.507

 Optimization completed.
    -- Stationary point found.
 SCF Done:  E(UM062X) =  -193.653591241     A.U. after   12 cycles
 SCF Done:  E(UM062X) =  -193.653639881     A.U. after   11 cycles
 SCF Done:  E(UM062X) =  -193.653640168     A.U. after   10 cycles
 Optimization completed.
 SCF Done:  E(UM062X) =  -193.652957962     A.U. after   12 cycles
 SCF Done:  E(UM062X) =  -193.652992301     A.U. after   10 cycles
 SCF Done:  E(UM062X) =  -193.652993450     A.U. after    9 cycles
 SCF Done:  E(UM062X) =  -193.652993673     A.U. after    9 cycles
 SCF Done:  E(UM062X) =  -193.652010115     A.U. after   12 cycles
 SCF Done:  E(UM062X) =  -193.652085605     A.U. after   12 cycles
 SCF Done:  E(UM062X) =  -193.653031931     A.U. after   12 cycles
 SCF Done:  E(UM062X) =  -193.653036169     A.U. after   10 cycles
 SCF Done:  E(UM062X) =  -193.653036242     A.U. after    8 cycles
 SCF Done:  E(UM062X) =  -193.653536100     A.U. after   12 cycles
 SCF Done:  E(UM062X) =  -193.653645050     A.U. after   12 cycles
 SCF Done:  E(UM062X) =  -193.653646571     A.U. after   10 cycles
 SCF Done:  E(UM062X) =  -193.653646608     A.U. after    8 cycles
    -- Stationary point found.
 SCF Done:  E(UM062X) =  -193.653787285     A.U. after   12 cycles
 SCF Done:  E(UM062X) =  -193.653866621     A.U. after   12 cycles
 SCF Done:  E(UM062X) =  -193.653867098     A.U. after    9 cycles
 Optimization completed.
    -- Stationary point found.

                         Standard orientation:
 ---------------------------------------------------------------------
 Center     Atomic      Atomic             Coordinates (Angstroms)
 Number     Number       Type             X           Y           Z
 ---------------------------------------------------------------------
      1          8           0        0.584738   -0.459810    0.003775
      2          6           0       -0.443727    0.516664    0.043660
      3          6           0       -1.775909   -0.190329   -0.029127
      4          6           0        1.837585    0.031671    0.033982
      5          1           0       -0.313777    1.203336   -0.799170
      6          1           0       -0.349449    1.092871    0.968518
      7          1           0       -1.852525   -0.762605   -0.952103
      8          1           0       -1.888610   -0.872926    0.811373
      9          1           0       -2.588006    0.534716   -0.000080
     10          1           0        2.609640   -0.714934   -0.051878
     11          1           0        1.997125    1.049981   -0.297940
 ---------------------------------------------------------------------

 The electronic state is 2-A.
 Alpha  occ. eigenvalues --  -19.65522 -10.59171 -10.57540 -10.53048  -1.19533
 Alpha  occ. eigenvalues --   -0.87474  -0.75861  -0.70132  -0.57980  -0.56803
 Alpha  occ. eigenvalues --   -0.55241  -0.47135  -0.45906  -0.44050  -0.41043
 Alpha  occ. eigenvalues --   -0.39744  -0.23042
 Alpha virt. eigenvalues --    0.01925   0.03528   0.04107   0.04841   0.05876
 Alpha virt. eigenvalues --    0.07212   0.08350   0.09142   0.09735   0.11073
 Alpha virt. eigenvalues --    0.13514   0.15065   0.18409   0.18925   0.20115

  Beta  occ. eigenvalues --  -19.65088 -10.59180 -10.56847 -10.53049  -1.18137
  Beta  occ. eigenvalues --   -0.87068  -0.74171  -0.68848  -0.56844  -0.55542
  Beta  occ. eigenvalues --   -0.54284  -0.45904  -0.45158  -0.43627  -0.40374
  Beta  occ. eigenvalues --   -0.37608
  Beta virt. eigenvalues --   -0.01112   0.01686   0.03175   0.04048   0.05330
  Beta virt. eigenvalues --    0.05920   0.07073   0.08107   0.09220   0.09589
  Beta virt. eigenvalues --    0.11331   0.13429   0.13929   0.18478   0.19017

 Mulliken charges and spin densities:
               1          2
     1  O   -0.091963   0.058542
     2  C   -0.198828   0.025848
     3  C   -0.414276  -0.007535
     4  C   -0.296628   0.988000
     5  H    0.139085   0.003207
     6  H    0.149156   0.001376
     7  H    0.142116  -0.000327
     8  H    0.144258  -0.000038
     9  H    0.127887  -0.000361
    10  H    0.158313  -0.033765
    11  H    0.140880  -0.034947
 Sum of Mulliken charges =  -0.00000   1.00000

 Dipole moment (field-independent basis, Debye):
    X=             -0.8133    Y=              1.0903    Z=             -0.3458  Tot=              1.4035
 Quadrupole moment (field-independent basis, Debye-Ang):
   XX=            -24.7331   YY=            -26.1829   ZZ=            -27.2256
   XY=             -0.2290   XZ=             -0.9197   YZ=             -0.3211

 Normal termination of Gaussian 16 at Tue Apr 23 23:39:33 2019.
