 Gaussian 16, Revision A.03,
 Gaussian 16:  EM64L-G16RevA.03 25-Dec-2016

 ----------------------------------------------
 #p m062x/6-311+g(2df,2p) Opt=(CalcFC,ModRedun)
 ----------------------------------------------

 ----------------------------------------
 Gaussian Input Prepared from Scan Object
 ----------------------------------------
 Symbolic Z-matrix:
 Charge =  0 Multiplicity = 2

 SCF Done:  E(UM062X) =  -193.653867101     A.U. after   13 cycles

  Exact polarizability:   0.000   0.000   0.000   0.000   0.000   0.000
 Approx polarizability:  49.942  -0.257  46.058  -0.050   0.116  44.507

 Optimization completed.
    -- Stationary point found.
 SCF Done:  E(UM062X) =  -193.652446280     A.U. after   12 cycles
 SCF Done:  E(UM062X) =  -193.653552292     A.U. after   11 cycles
 SCF Done:  E(UM062X) =  -193.653573803     A.U. after   10 cycles
 Optimization completed.
 SCF Done:  E(UM062X) =  -193.651568225     A.U. after   12 cycles
 SCF Done:  E(UM062X) =  -193.652716237     A.U. after   11 cycles
 SCF Done:  E(UM062X) =  -193.652746494     A.U. after    9 cycles
 SCF Done:  E(UM062X) =  -193.650269443     A.U. after   12 cycles
 SCF Done:  E(UM062X) =  -193.651522055     A.U. after   11 cycles
 SCF Done:  E(UM062X) =  -193.651563598     A.U. after    9 cycles
 SCF Done:  E(UM062X) =  -193.651593257     A.U. after    9 cycles
 SCF Done:  E(UM062X) =  -193.651416736     A.U. after   12 cycles
 SCF Done:  E(UM062X) =  -193.652734759     A.U. after   11 cycles
 SCF Done:  E(UM062X) =  -193.652753445     A.U. after    9 cycles
 SCF Done:  E(UM062X) =  -193.652367291     A.U. after   12 cycles
 SCF Done:  E(UM062X) =  -193.653552246     A.U. after   11 cycles
 SCF Done:  E(UM062X) =  -193.653571204     A.U. after   10 cycles
    -- Stationary point found.
 SCF Done:  E(UM062X) =  -193.652733109     A.U. after   12 cycles
 SCF Done:  E(UM062X) =  -193.653855254     A.U. after   11 cycles
 SCF Done:  E(UM062X) =  -193.653867047     A.U. after    9 cycles
 Optimization completed.
    -- Stationary point found.

                         Standard orientation:
 ---------------------------------------------------------------------
 Center     Atomic      Atomic             Coordinates (Angstroms)
 Number     Number       Type             X           Y           Z
 ---------------------------------------------------------------------
      1          8           0        0.584639   -0.459771    0.003532
      2          6           0       -0.443720    0.516741    0.043437
      3          6           0       -1.775788   -0.190400   -0.028955
      4          6           0        1.837525    0.031589    0.034116
      5          1           0       -0.313708    1.203669   -0.799215
      6          1           0       -0.349528    1.092750    0.968423
      7          1           0       -1.852605   -0.762422   -0.952059
      8          1           0       -1.888231   -0.873110    0.811497
      9          1           0       -2.587887    0.534667    0.000339
     10          1           0        2.609520   -0.715069   -0.051722
     11          1           0        1.997223    1.050104   -0.297105
 ---------------------------------------------------------------------

 The electronic state is 2-A.
 Alpha  occ. eigenvalues --  -19.65522 -10.59170 -10.57540 -10.53047  -1.19534
 Alpha  occ. eigenvalues --   -0.87475  -0.75861  -0.70132  -0.57981  -0.56804
 Alpha  occ. eigenvalues --   -0.55241  -0.47134  -0.45905  -0.44051  -0.41041
 Alpha  occ. eigenvalues --   -0.39746  -0.23041
 Alpha virt. eigenvalues --    0.01925   0.03528   0.04106   0.04841   0.05876
 Alpha virt. eigenvalues --    0.07212   0.08349   0.09143   0.09735   0.11074
 Alpha virt. eigenvalues --    0.13513   0.15063   0.18411   0.18925   0.20117

  Beta  occ. eigenvalues --  -19.65088 -10.59179 -10.56847 -10.53048  -1.18139
  Beta  occ. eigenvalues --   -0.87069  -0.74170  -0.68848  -0.56844  -0.55543
  Beta  occ. eigenvalues --   -0.54284  -0.45902  -0.45157  -0.43629  -0.40375
  Beta  occ. eigenvalues --   -0.37608
  Beta virt. eigenvalues --   -0.01111   0.01686   0.03175   0.04047   0.05331
  Beta virt. eigenvalues --    0.05921   0.07073   0.08107   0.09220   0.09589
  Beta virt. eigenvalues --    0.11331   0.13427   0.13927   0.18480   0.19018

 Mulliken charges and spin densities:
               1          2
     1  O   -0.091944   0.058523
     2  C   -0.198810   0.025840
     3  C   -0.414302  -0.007528
     4  C   -0.296658   0.988046
     5  H    0.139090   0.003210
     6  H    0.149148   0.001382
     7  H    0.142109  -0.000327
     8  H    0.144269  -0.000037
     9  H    0.127873  -0.000362
    10  H    0.158323  -0.033778
    11  H    0.140902  -0.034969
 Sum of Mulliken charges =  -0.00000   1.00000

 Dipole moment (field-independent basis, Debye):
    X=             -0.8128    Y=              1.0905    Z=             -0.3451  Tot=              1.4032
 Quadrupole moment (field-independent basis, Debye-Ang):
   XX=            -24.7336   YY=            -26.1818   ZZ=            -27.2263
   XY=             -0.2284   XZ=             -0.9189   YZ=             -0.3216

 Normal termination of Gaussian 16 at Tue Apr 23 22:44:17 2019.
