 Gaussian 16, Revision A.03,
 Gaussian 16:  EM64L-G16RevA.03 25-Dec-2016

 ----------------------------------------------
 #p m062x/6-311+g(2df,2p) Opt=(CalcFC,ModRedun)
 ----------------------------------------------

 ----------------------------------------
 Gaussian Input Prepared from Scan Object
 ----------------------------------------
 Symbolic Z-matrix:
 Charge =  0 Multiplicity = 2

 SCF Done:  E(UM062X) =  -193.653867101     A.U. after   13 cycles

  Exact polarizability:   0.000   0.000   0.000   0.000   0.000   0.000
 Approx polarizability:  49.942  -0.257  46.058  -0.050   0.116  44.507

 Optimization completed.
    -- Stationary point found.
 SCF Done:  E(UM062X) =  -193.643987312     A.U. after   13 cycles
 SCF Done:  E(UM062X) =  -193.652153443     A.U. after   12 cycles
 SCF Done:  E(UM062X) =  -193.652663318     A.U. after   12 cycles
 SCF Done:  E(UM062X) =  -193.652669439     A.U. after    9 cycles
 Optimization completed.
 SCF Done:  E(UM062X) =  -193.642001903     A.U. after   13 cycles
 SCF Done:  E(UM062X) =  -193.650842980     A.U. after   12 cycles
 SCF Done:  E(UM062X) =  -193.651488443     A.U. after   11 cycles
 SCF Done:  E(UM062X) =  -193.651498860     A.U. after   11 cycles
 SCF Done:  E(UM062X) =  -193.644077685     A.U. after   13 cycles
 SCF Done:  E(UM062X) =  -193.651463969     A.U. after   10 cycles
 SCF Done:  E(UM062X) =  -193.651464292     A.U. after    8 cycles
 SCF Done:  E(UM062X) =  -193.642388865     A.U. after   13 cycles
 SCF Done:  E(UM062X) =  -193.652060073     A.U. after   13 cycles
 SCF Done:  E(UM062X) =  -193.652659861     A.U. after   12 cycles
 SCF Done:  E(UM062X) =  -193.652661973     A.U. after    8 cycles
    -- Stationary point found.
 SCF Done:  E(UM062X) =  -193.645216629     A.U. after   13 cycles
 SCF Done:  E(UM062X) =  -193.653422180     A.U. after   13 cycles
 SCF Done:  E(UM062X) =  -193.653864664     A.U. after   11 cycles
 SCF Done:  E(UM062X) =  -193.653867068     A.U. after    9 cycles
 Optimization completed.
    -- Stationary point found.

                         Standard orientation:
 ---------------------------------------------------------------------
 Center     Atomic      Atomic             Coordinates (Angstroms)
 Number     Number       Type             X           Y           Z
 ---------------------------------------------------------------------
      1          8           0        0.584664   -0.459934    0.004077
      2          6           0       -0.443655    0.516722    0.043900
      3          6           0       -1.775847   -0.190275   -0.029346
      4          6           0        1.837490    0.031723    0.033772
      5          1           0       -0.313428    1.203472   -0.798802
      6          1           0       -0.349339    1.092706    0.968889
      7          1           0       -1.852193   -0.762254   -0.952543
      8          1           0       -1.888545   -0.873235    0.810864
      9          1           0       -2.588096    0.534595   -0.000153
     10          1           0        2.609640   -0.714784   -0.052143
     11          1           0        1.996721    1.049946   -0.298682
 ---------------------------------------------------------------------

 The electronic state is 2-A.
 Alpha  occ. eigenvalues --  -19.65523 -10.59171 -10.57541 -10.53048  -1.19533
 Alpha  occ. eigenvalues --   -0.87472  -0.75860  -0.70134  -0.57979  -0.56803
 Alpha  occ. eigenvalues --   -0.55239  -0.47134  -0.45906  -0.44047  -0.41045
 Alpha  occ. eigenvalues --   -0.39745  -0.23044
 Alpha virt. eigenvalues --    0.01925   0.03528   0.04106   0.04840   0.05876
 Alpha virt. eigenvalues --    0.07212   0.08350   0.09142   0.09734   0.11072
 Alpha virt. eigenvalues --    0.13515   0.15065   0.18407   0.18926   0.20112

  Beta  occ. eigenvalues --  -19.65089 -10.59179 -10.56848 -10.53049  -1.18137
  Beta  occ. eigenvalues --   -0.87066  -0.74169  -0.68850  -0.56843  -0.55542
  Beta  occ. eigenvalues --   -0.54282  -0.45903  -0.45158  -0.43624  -0.40377
  Beta  occ. eigenvalues --   -0.37609
  Beta virt. eigenvalues --   -0.01113   0.01686   0.03175   0.04048   0.05330
  Beta virt. eigenvalues --    0.05921   0.07073   0.08107   0.09220   0.09589
  Beta virt. eigenvalues --    0.11330   0.13429   0.13929   0.18476   0.19019

 Mulliken charges and spin densities:
               1          2
     1  O   -0.091989   0.058546
     2  C   -0.198797   0.025872
     3  C   -0.414299  -0.007543
     4  C   -0.296583   0.987980
     5  H    0.139058   0.003203
     6  H    0.149179   0.001362
     7  H    0.142121  -0.000326
     8  H    0.144261  -0.000039
     9  H    0.127884  -0.000361
    10  H    0.158316  -0.033757
    11  H    0.140849  -0.034936
 Sum of Mulliken charges =  -0.00000   1.00000

 Dipole moment (field-independent basis, Debye):
    X=             -0.8131    Y=              1.0903    Z=             -0.3463  Tot=              1.4035
 Quadrupole moment (field-independent basis, Debye-Ang):
   XX=            -24.7337   YY=            -26.1835   ZZ=            -27.2250
   XY=             -0.2293   XZ=             -0.9206   YZ=             -0.3213

 Normal termination of Gaussian 16 at Fri Mar 29 13:45:33 2019.
