 Gaussian 16, Revision A.03,
 Gaussian 16:  EM64L-G16RevA.03 25-Dec-2016

 ----------------------------------------------
 #p m062x/6-311+g(2df,2p) Opt=(CalcFC,ModRedun)
 ----------------------------------------------

 ----------------------------------------
 Gaussian Input Prepared from Scan Object
 ----------------------------------------
 Symbolic Z-matrix:
 Charge =  0 Multiplicity = 2

 SCF Done:  E(UM062X) =  -193.653568808     A.U. after   14 cycles

  Exact polarizability:   0.000   0.000   0.000   0.000   0.000   0.000
 Approx polarizability:  49.036  -2.510  46.059  -0.213  -0.476  45.594

 Optimization completed.
    -- Stationary point found.
 SCF Done:  E(UM062X) =  -193.652275460     A.U. after   12 cycles
 SCF Done:  E(UM062X) =  -193.653303663     A.U. after   11 cycles
 SCF Done:  E(UM062X) =  -193.653307471     A.U. after    9 cycles
 SCF Done:  E(UM062X) =  -193.653307523     A.U. after    7 cycles
 Optimization completed.
 SCF Done:  E(UM062X) =  -193.651466801     A.U. after   12 cycles
 SCF Done:  E(UM062X) =  -193.652508163     A.U. after   11 cycles
 SCF Done:  E(UM062X) =  -193.652512313     A.U. after    9 cycles
 SCF Done:  E(UM062X) =  -193.652512397     A.U. after    7 cycles
 SCF Done:  E(UM062X) =  -193.650138202     A.U. after   12 cycles
 SCF Done:  E(UM062X) =  -193.652139809     A.U. after    9 cycles
 SCF Done:  E(UM062X) =  -193.651518101     A.U. after   12 cycles
 SCF Done:  E(UM062X) =  -193.652791652     A.U. after   12 cycles
 SCF Done:  E(UM062X) =  -193.652792480     A.U. after    9 cycles
 SCF Done:  E(UM062X) =  -193.652184154     A.U. after   11 cycles
 SCF Done:  E(UM062X) =  -193.653344751     A.U. after   12 cycles
 SCF Done:  E(UM062X) =  -193.653345478     A.U. after    9 cycles
    -- Stationary point found.
 SCF Done:  E(UM062X) =  -193.652488867     A.U. after   12 cycles
 SCF Done:  E(UM062X) =  -193.653567306     A.U. after   11 cycles
 SCF Done:  E(UM062X) =  -193.653568787     A.U. after    8 cycles
 Optimization completed.
    -- Stationary point found.

                         Standard orientation:
 ---------------------------------------------------------------------
 Center     Atomic      Atomic             Coordinates (Angstroms)
 Number     Number       Type             X           Y           Z
 ---------------------------------------------------------------------
      1          8           0        0.716675    0.485516   -0.368871
      2          6           0       -0.540420    0.606442    0.278367
      3          6           0       -1.488965   -0.506638   -0.122977
      4          6           0        1.512620   -0.495375    0.100366
      5          1           0       -0.930583    1.577792   -0.019056
      6          1           0       -0.383735    0.617178    1.361939
      7          1           0       -1.631934   -0.507166   -1.202507
      8          1           0       -1.090690   -1.476484    0.172323
      9          1           0       -2.456856   -0.367501    0.357693
     10          1           0        2.471506   -0.555745   -0.387629
     11          1           0        1.389482   -0.798785    1.133668
 ---------------------------------------------------------------------

 The electronic state is 2-A.
 Alpha  occ. eigenvalues --  -19.65430 -10.59181 -10.57507 -10.52984  -1.19431
 Alpha  occ. eigenvalues --   -0.86925  -0.77352  -0.68989  -0.58262  -0.56903
 Alpha  occ. eigenvalues --   -0.53627  -0.49223  -0.45799  -0.43050  -0.41536
 Alpha  occ. eigenvalues --   -0.39500  -0.23005
 Alpha virt. eigenvalues --    0.01888   0.03642   0.03920   0.04236   0.06818
 Alpha virt. eigenvalues --    0.07350   0.07952   0.08412   0.08696   0.11803
 Alpha virt. eigenvalues --    0.12654   0.13727   0.17734   0.19335   0.19706

  Beta  occ. eigenvalues --  -19.64987 -10.59190 -10.56808 -10.52973  -1.18021
  Beta  occ. eigenvalues --   -0.86549  -0.75659  -0.67562  -0.57607  -0.55810
  Beta  occ. eigenvalues --   -0.51358  -0.48691  -0.45399  -0.42688  -0.39696
  Beta  occ. eigenvalues --   -0.37853
  Beta virt. eigenvalues --   -0.00707   0.01647   0.03545   0.03867   0.04303
  Beta virt. eigenvalues --    0.06848   0.07358   0.07963   0.08633   0.08832
  Beta virt. eigenvalues --    0.10990   0.12650   0.13835   0.17942   0.19396

 Mulliken charges and spin densities:
               1          2
     1  O   -0.087351   0.068892
     2  C   -0.251684   0.027643
     3  C   -0.326101   0.003491
     4  C   -0.335867   0.983627
     5  H    0.147260  -0.000345
     6  H    0.141683   0.000265
     7  H    0.145254  -0.000073
     8  H    0.137384  -0.007863
     9  H    0.126352  -0.001531
    10  H    0.160276  -0.034253
    11  H    0.142794  -0.039852
 Sum of Mulliken charges =  -0.00000   1.00000

 Dipole moment (field-independent basis, Debye):
    X=             -1.0333    Y=             -0.0611    Z=              1.0057  Tot=              1.4432
 Quadrupole moment (field-independent basis, Debye-Ang):
   XX=            -24.8991   YY=            -27.2406   ZZ=            -26.2674
   XY=             -1.3949   XZ=              0.2969   YZ=             -0.0303

 Normal termination of Gaussian 16 at Mon Mar 11 20:46:40 2019.
