 Gaussian 16, Revision A.03,
 Gaussian 16:  EM64L-G16RevA.03 25-Dec-2016

 ----------------------------------------------
 #p m062x/6-311+g(2df,2p) Opt=(CalcFC,ModRedun)
 ----------------------------------------------

 ----------------------------------------
 Gaussian Input Prepared from Scan Object
 ----------------------------------------
 Symbolic Z-matrix:
 Charge =  0 Multiplicity = 2

 SCF Done:  E(UM062X) =  -193.653867101     A.U. after   13 cycles

  Exact polarizability:   0.000   0.000   0.000   0.000   0.000   0.000
 Approx polarizability:  49.942  -0.257  46.058  -0.050   0.116  44.507

 Optimization completed.
    -- Stationary point found.
 SCF Done:  E(UM062X) =  -193.652624932     A.U. after   12 cycles
 SCF Done:  E(UM062X) =  -193.653705605     A.U. after   12 cycles
 SCF Done:  E(UM062X) =  -193.653708364     A.U. after   10 cycles
 Optimization completed.
 SCF Done:  E(UM062X) =  -193.652165986     A.U. after   12 cycles
 SCF Done:  E(UM062X) =  -193.653267498     A.U. after   12 cycles
 SCF Done:  E(UM062X) =  -193.653271845     A.U. after    9 cycles
 SCF Done:  E(UM062X) =  -193.651501957     A.U. after   11 cycles
 SCF Done:  E(UM062X) =  -193.652659503     A.U. after   12 cycles
 SCF Done:  E(UM062X) =  -193.652661984     A.U. after    8 cycles
 SCF Done:  E(UM062X) =  -193.653268573     A.U. after   12 cycles
 SCF Done:  E(UM062X) =  -193.653270822     A.U. after    9 cycles
 SCF Done:  E(UM062X) =  -193.653270911     A.U. after    8 cycles
 SCF Done:  E(UM062X) =  -193.652584010     A.U. after   12 cycles
 SCF Done:  E(UM062X) =  -193.653706696     A.U. after   12 cycles
 SCF Done:  E(UM062X) =  -193.653707902     A.U. after    9 cycles
    -- Stationary point found.
 SCF Done:  E(UM062X) =  -193.652768518     A.U. after   12 cycles
 SCF Done:  E(UM062X) =  -193.653864656     A.U. after   12 cycles
 SCF Done:  E(UM062X) =  -193.653867069     A.U. after   10 cycles
 SCF Done:  E(UM062X) =  -193.653867101     A.U. after    8 cycles
 Optimization completed.
    -- Stationary point found.

                         Standard orientation:
 ---------------------------------------------------------------------
 Center     Atomic      Atomic             Coordinates (Angstroms)
 Number     Number       Type             X           Y           Z
 ---------------------------------------------------------------------
      1          8           0        0.584752   -0.459807    0.004056
      2          6           0       -0.443736    0.516646    0.043806
      3          6           0       -1.775914   -0.190325   -0.029296
      4          6           0        1.837600    0.031674    0.033714
      5          1           0       -0.313611    1.203408   -0.798921
      6          1           0       -0.349623    1.092765    0.968737
      7          1           0       -1.852446   -0.762373   -0.952420
      8          1           0       -1.888707   -0.873130    0.811025
      9          1           0       -2.588016    0.534712   -0.000143
     10          1           0        2.609643   -0.714945   -0.052006
     11          1           0        1.997047    1.050048   -0.298065
 ---------------------------------------------------------------------

 The electronic state is 2-A.
 Alpha  occ. eigenvalues --  -19.65523 -10.59171 -10.57540 -10.53048  -1.19533
 Alpha  occ. eigenvalues --   -0.87474  -0.75862  -0.70132  -0.57980  -0.56804
 Alpha  occ. eigenvalues --   -0.55241  -0.47135  -0.45907  -0.44050  -0.41043
 Alpha  occ. eigenvalues --   -0.39745  -0.23039
 Alpha virt. eigenvalues --    0.01925   0.03528   0.04107   0.04841   0.05876
 Alpha virt. eigenvalues --    0.07212   0.08350   0.09142   0.09734   0.11074
 Alpha virt. eigenvalues --    0.13515   0.15065   0.18408   0.18925   0.20113

  Beta  occ. eigenvalues --  -19.65088 -10.59180 -10.56847 -10.53049  -1.18137
  Beta  occ. eigenvalues --   -0.87068  -0.74171  -0.68848  -0.56844  -0.55543
  Beta  occ. eigenvalues --   -0.54283  -0.45904  -0.45159  -0.43627  -0.40375
  Beta  occ. eigenvalues --   -0.37609
  Beta virt. eigenvalues --   -0.01110   0.01686   0.03175   0.04048   0.05330
  Beta virt. eigenvalues --    0.05921   0.07073   0.08107   0.09220   0.09589
  Beta virt. eigenvalues --    0.11331   0.13429   0.13929   0.18478   0.19017

 Mulliken charges and spin densities:
               1          2
     1  O   -0.091950   0.058543
     2  C   -0.198843   0.025862
     3  C   -0.414260  -0.007541
     4  C   -0.296671   0.988043
     5  H    0.139062   0.003209
     6  H    0.149171   0.001373
     7  H    0.142115  -0.000325
     8  H    0.144257  -0.000039
     9  H    0.127888  -0.000361
    10  H    0.158333  -0.033785
    11  H    0.140900  -0.034978
 Sum of Mulliken charges =  -0.00000   1.00000

 Dipole moment (field-independent basis, Debye):
    X=             -0.8135    Y=              1.0904    Z=             -0.3457  Tot=              1.4036
 Quadrupole moment (field-independent basis, Debye-Ang):
   XX=            -24.7335   YY=            -26.1826   ZZ=            -27.2258
   XY=             -0.2289   XZ=             -0.9194   YZ=             -0.3208

 Normal termination of Gaussian 16 at Tue Apr 23 22:58:57 2019.
