 Gaussian 16, Revision A.03,
 Gaussian 16:  EM64L-G16RevA.03 25-Dec-2016

 ----------------------------------------------
 #p m062x/6-311+g(2df,2p) Opt=(CalcFC,ModRedun)
 ----------------------------------------------

 ----------------------------------------
 Gaussian Input Prepared from Scan Object
 ----------------------------------------
 Symbolic Z-matrix:
 Charge =  0 Multiplicity = 2

 SCF Done:  E(UM062X) =  -193.653867101     A.U. after   13 cycles

  Exact polarizability:   0.000   0.000   0.000   0.000   0.000   0.000
 Approx polarizability:  49.942  -0.257  46.058  -0.050   0.116  44.507

 Optimization completed.
    -- Stationary point found.
 SCF Done:  E(UM062X) =  -193.652318602     A.U. after   12 cycles
 SCF Done:  E(UM062X) =  -193.653544736     A.U. after   12 cycles
 SCF Done:  E(UM062X) =  -193.653568964     A.U. after   10 cycles
 Optimization completed.
 SCF Done:  E(UM062X) =  -193.651441509     A.U. after   12 cycles
 SCF Done:  E(UM062X) =  -193.652712530     A.U. after   12 cycles
 SCF Done:  E(UM062X) =  -193.652741244     A.U. after    9 cycles
 SCF Done:  E(UM062X) =  -193.650167936     A.U. after   12 cycles
 SCF Done:  E(UM062X) =  -193.651531456     A.U. after   12 cycles
 SCF Done:  E(UM062X) =  -193.651571173     A.U. after    9 cycles
 SCF Done:  E(UM062X) =  -193.651575851     A.U. after   10 cycles
 SCF Done:  E(UM062X) =  -193.651319657     A.U. after   12 cycles
 SCF Done:  E(UM062X) =  -193.652726848     A.U. after   12 cycles
 SCF Done:  E(UM062X) =  -193.652748540     A.U. after   10 cycles
 SCF Done:  E(UM062X) =  -193.652253624     A.U. after   12 cycles
 SCF Done:  E(UM062X) =  -193.653554274     A.U. after   12 cycles
 SCF Done:  E(UM062X) =  -193.653572862     A.U. after   10 cycles
    -- Stationary point found.
 SCF Done:  E(UM062X) =  -193.652608651     A.U. after   12 cycles
 SCF Done:  E(UM062X) =  -193.653848436     A.U. after   12 cycles
 SCF Done:  E(UM062X) =  -193.653867080     A.U. after   10 cycles
 Optimization completed.
    -- Stationary point found.

                         Standard orientation:
 ---------------------------------------------------------------------
 Center     Atomic      Atomic             Coordinates (Angstroms)
 Number     Number       Type             X           Y           Z
 ---------------------------------------------------------------------
      1          8           0        0.584670   -0.459755    0.004192
      2          6           0       -0.443783    0.516726    0.043896
      3          6           0       -1.775778   -0.190393   -0.029417
      4          6           0        1.837554    0.031661    0.033627
      5          1           0       -0.313633    1.203507   -0.798803
      6          1           0       -0.349852    1.092791    0.968900
      7          1           0       -1.852061   -0.762438   -0.952545
      8          1           0       -1.888276   -0.873185    0.810976
      9          1           0       -2.588057    0.534493   -0.000213
     10          1           0        2.609537   -0.715027   -0.052059
     11          1           0        1.997022    1.049939   -0.298438
 ---------------------------------------------------------------------

 The electronic state is 2-A.
 Alpha  occ. eigenvalues --  -19.65522 -10.59170 -10.57540 -10.53047  -1.19534
 Alpha  occ. eigenvalues --   -0.87476  -0.75861  -0.70131  -0.57981  -0.56805
 Alpha  occ. eigenvalues --   -0.55240  -0.47135  -0.45906  -0.44049  -0.41044
 Alpha  occ. eigenvalues --   -0.39745  -0.23040
 Alpha virt. eigenvalues --    0.01926   0.03529   0.04106   0.04840   0.05877
 Alpha virt. eigenvalues --    0.07212   0.08350   0.09142   0.09734   0.11073
 Alpha virt. eigenvalues --    0.13514   0.15064   0.18408   0.18925   0.20112

  Beta  occ. eigenvalues --  -19.65088 -10.59179 -10.56847 -10.53048  -1.18138
  Beta  occ. eigenvalues --   -0.87070  -0.74170  -0.68848  -0.56845  -0.55545
  Beta  occ. eigenvalues --   -0.54282  -0.45903  -0.45159  -0.43625  -0.40375
  Beta  occ. eigenvalues --   -0.37609
  Beta virt. eigenvalues --   -0.01110   0.01686   0.03176   0.04048   0.05330
  Beta virt. eigenvalues --    0.05921   0.07073   0.08107   0.09220   0.09588
  Beta virt. eigenvalues --    0.11330   0.13429   0.13929   0.18477   0.19018

 Mulliken charges and spin densities:
               1          2
     1  O   -0.091951   0.058537
     2  C   -0.198876   0.025869
     3  C   -0.414180  -0.007545
     4  C   -0.296683   0.988045
     5  H    0.139046   0.003207
     6  H    0.149176   0.001368
     7  H    0.142115  -0.000325
     8  H    0.144252  -0.000039
     9  H    0.127878  -0.000361
    10  H    0.158329  -0.033783
    11  H    0.140894  -0.034973
 Sum of Mulliken charges =  -0.00000   1.00000

 Dipole moment (field-independent basis, Debye):
    X=             -0.8133    Y=              1.0902    Z=             -0.3459  Tot=              1.4035
 Quadrupole moment (field-independent basis, Debye-Ang):
   XX=            -24.7347   YY=            -26.1827   ZZ=            -27.2251
   XY=             -0.2298   XZ=             -0.9198   YZ=             -0.3208

 Normal termination of Gaussian 16 at Wed Mar 13 15:59:01 2019.
