 Gaussian 16, Revision A.03,
 Gaussian 16:  EM64L-G16RevA.03 25-Dec-2016

 ----------------------------------------------
 #p m062x/6-311+g(2df,2p) Opt=(CalcFC,ModRedun)
 ----------------------------------------------

 ----------------------------------------
 Gaussian Input Prepared from Scan Object
 ----------------------------------------
 Symbolic Z-matrix:
 Charge =  0 Multiplicity = 2

 SCF Done:  E(UM062X) =  -193.653867101     A.U. after   13 cycles

  Exact polarizability:   0.000   0.000   0.000   0.000   0.000   0.000
 Approx polarizability:  49.942  -0.257  46.058  -0.050   0.116  44.507

 Optimization completed.
    -- Stationary point found.
 SCF Done:  E(UM062X) =  -193.652671580     A.U. after   13 cycles
 SCF Done:  E(UM062X) =  -193.653130554     A.U. after   12 cycles
 SCF Done:  E(UM062X) =  -193.653273100     A.U. after   12 cycles
 SCF Done:  E(UM062X) =  -193.653499957     A.U. after   13 cycles
 SCF Done:  E(UM062X) =  -193.653540971     A.U. after   11 cycles
 SCF Done:  E(UM062X) =  -193.653547003     A.U. after   11 cycles
 SCF Done:  E(UM062X) =  -193.653547612     A.U. after   10 cycles
 SCF Done:  E(UM062X) =  -193.653549546     A.U. after   10 cycles
 SCF Done:  E(UM062X) =  -193.653549565     A.U. after    7 cycles
 Optimization completed.
 SCF Done:  E(UM062X) =  -193.650394444     A.U. after   13 cycles
 SCF Done:  E(UM062X) =  -193.651798645     A.U. after   12 cycles
 SCF Done:  E(UM062X) =  -193.651931574     A.U. after   12 cycles
 SCF Done:  E(UM062X) =  -193.651943475     A.U. after   11 cycles
 SCF Done:  E(UM062X) =  -193.651943928     A.U. after    9 cycles
    -- Stationary point found.
 SCF Done:  E(UM062X) =  -193.653278476     A.U. after   13 cycles
 SCF Done:  E(UM062X) =  -193.653827683     A.U. after   11 cycles
 SCF Done:  E(UM062X) =  -193.653865373     A.U. after   10 cycles
 SCF Done:  E(UM062X) =  -193.653866909     A.U. after    9 cycles
 SCF Done:  E(UM062X) =  -193.653867099     A.U. after    8 cycles
 Optimization completed.
    -- Stationary point found.

                         Standard orientation:
 ---------------------------------------------------------------------
 Center     Atomic      Atomic             Coordinates (Angstroms)
 Number     Number       Type             X           Y           Z
 ---------------------------------------------------------------------
      1          8           0        0.584737   -0.459799    0.004082
      2          6           0       -0.443726    0.516641    0.043829
      3          6           0       -1.775908   -0.190321   -0.029318
      4          6           0        1.837595    0.031671    0.033722
      5          1           0       -0.313602    1.203428   -0.798889
      6          1           0       -0.349622    1.092743    0.968760
      7          1           0       -1.852448   -0.762314   -0.952476
      8          1           0       -1.888685   -0.873177    0.810963
      9          1           0       -2.588007    0.534716   -0.000114
     10          1           0        2.609612   -0.714945   -0.052107
     11          1           0        1.997088    1.049997   -0.298190
 ---------------------------------------------------------------------

 The electronic state is 2-A.
 Alpha  occ. eigenvalues --  -19.65523 -10.59171 -10.57540 -10.53048  -1.19534
 Alpha  occ. eigenvalues --   -0.87474  -0.75862  -0.70132  -0.57981  -0.56804
 Alpha  occ. eigenvalues --   -0.55241  -0.47135  -0.45907  -0.44050  -0.41043
 Alpha  occ. eigenvalues --   -0.39745  -0.23040
 Alpha virt. eigenvalues --    0.01925   0.03528   0.04107   0.04841   0.05876
 Alpha virt. eigenvalues --    0.07212   0.08350   0.09142   0.09734   0.11074
 Alpha virt. eigenvalues --    0.13515   0.15065   0.18408   0.18925   0.20113

  Beta  occ. eigenvalues --  -19.65089 -10.59180 -10.56847 -10.53049  -1.18138
  Beta  occ. eigenvalues --   -0.87068  -0.74172  -0.68848  -0.56844  -0.55543
  Beta  occ. eigenvalues --   -0.54283  -0.45904  -0.45159  -0.43627  -0.40375
  Beta  occ. eigenvalues --   -0.37609
  Beta virt. eigenvalues --   -0.01111   0.01686   0.03175   0.04048   0.05330
  Beta virt. eigenvalues --    0.05921   0.07073   0.08107   0.09220   0.09589
  Beta virt. eigenvalues --    0.11331   0.13429   0.13929   0.18478   0.19017

 Mulliken charges and spin densities:
               1          2
     1  O   -0.091940   0.058542
     2  C   -0.198851   0.025863
     3  C   -0.414253  -0.007543
     4  C   -0.296659   0.988027
     5  H    0.139054   0.003210
     6  H    0.149172   0.001373
     7  H    0.142114  -0.000325
     8  H    0.144255  -0.000039
     9  H    0.127887  -0.000361
    10  H    0.158328  -0.033778
    11  H    0.140893  -0.034968
 Sum of Mulliken charges =  -0.00000   1.00000

 Dipole moment (field-independent basis, Debye):
    X=             -0.8134    Y=              1.0903    Z=             -0.3459  Tot=              1.4036
 Quadrupole moment (field-independent basis, Debye-Ang):
   XX=            -24.7335   YY=            -26.1827   ZZ=            -27.2256
   XY=             -0.2289   XZ=             -0.9199   YZ=             -0.3208

 Normal termination of Gaussian 16 at Fri Mar 29 11:24:02 2019.
