 Gaussian 16, Revision A.03,
 Gaussian 16:  EM64L-G16RevA.03 25-Dec-2016

 ----------------------------------------------
 #p m062x/6-311+g(2df,2p) Opt=(CalcFC,ModRedun)
 ----------------------------------------------

 ----------------------------------------
 Gaussian Input Prepared from Scan Object
 ----------------------------------------
 Symbolic Z-matrix:
 Charge =  0 Multiplicity = 2

 SCF Done:  E(UM062X) =  -193.653568808     A.U. after   14 cycles

  Exact polarizability:   0.000   0.000   0.000   0.000   0.000   0.000
 Approx polarizability:  49.036  -2.510  46.059  -0.213  -0.476  45.594

 Optimization completed.
    -- Stationary point found.
 SCF Done:  E(UM062X) =  -193.653330130     A.U. after   12 cycles
 SCF Done:  E(UM062X) =  -193.653390414     A.U. after    9 cycles
 SCF Done:  E(UM062X) =  -193.653390621     A.U. after    8 cycles
 Optimization completed.
 SCF Done:  E(UM062X) =  -193.652905097     A.U. after   12 cycles
 SCF Done:  E(UM062X) =  -193.652969084     A.U. after   11 cycles
 SCF Done:  E(UM062X) =  -193.652973413     A.U. after   10 cycles
 SCF Done:  E(UM062X) =  -193.652974452     A.U. after   10 cycles
 SCF Done:  E(UM062X) =  -193.652974491     A.U. after    8 cycles
 SCF Done:  E(UM062X) =  -193.652435288     A.U. after   12 cycles
 SCF Done:  E(UM062X) =  -193.651438143     A.U. after   10 cycles
 SCF Done:  E(UM062X) =  -193.652544520     A.U. after   12 cycles
 SCF Done:  E(UM062X) =  -193.652654442     A.U. after   12 cycles
 SCF Done:  E(UM062X) =  -193.652655194     A.U. after    9 cycles
 SCF Done:  E(UM062X) =  -193.653269870     A.U. after   12 cycles
 SCF Done:  E(UM062X) =  -193.653354668     A.U. after   10 cycles
 SCF Done:  E(UM062X) =  -193.653355223     A.U. after    8 cycles
    -- Stationary point found.
 SCF Done:  E(UM062X) =  -193.653498717     A.U. after   12 cycles
 SCF Done:  E(UM062X) =  -193.653568583     A.U. after   10 cycles
 SCF Done:  E(UM062X) =  -193.653568805     A.U. after    8 cycles
 Optimization completed.
    -- Stationary point found.

                         Standard orientation:
 ---------------------------------------------------------------------
 Center     Atomic      Atomic             Coordinates (Angstroms)
 Number     Number       Type             X           Y           Z
 ---------------------------------------------------------------------
      1          8           0        0.716598    0.485493   -0.368934
      2          6           0       -0.540456    0.606487    0.278361
      3          6           0       -1.488865   -0.506686   -0.122974
      4          6           0        1.512595   -0.495313    0.100418
      5          1           0       -0.930564    1.577896   -0.018970
      6          1           0       -0.383810    0.617129    1.361918
      7          1           0       -1.631419   -0.507640   -1.202560
      8          1           0       -1.090660   -1.476389    0.172894
      9          1           0       -2.456942   -0.367385    0.357269
     10          1           0        2.471437   -0.555867   -0.387655
     11          1           0        1.389528   -0.798615    1.133748
 ---------------------------------------------------------------------

 The electronic state is 2-A.
 Alpha  occ. eigenvalues --  -19.65430 -10.59181 -10.57507 -10.52983  -1.19431
 Alpha  occ. eigenvalues --   -0.86925  -0.77352  -0.68990  -0.58261  -0.56904
 Alpha  occ. eigenvalues --   -0.53626  -0.49222  -0.45798  -0.43050  -0.41536
 Alpha  occ. eigenvalues --   -0.39501  -0.23005
 Alpha virt. eigenvalues --    0.01888   0.03642   0.03919   0.04236   0.06818
 Alpha virt. eigenvalues --    0.07350   0.07952   0.08412   0.08695   0.11804
 Alpha virt. eigenvalues --    0.12654   0.13727   0.17735   0.19335   0.19706

  Beta  occ. eigenvalues --  -19.64987 -10.59189 -10.56808 -10.52972  -1.18021
  Beta  occ. eigenvalues --   -0.86549  -0.75658  -0.67563  -0.57607  -0.55810
  Beta  occ. eigenvalues --   -0.51358  -0.48690  -0.45399  -0.42688  -0.39697
  Beta  occ. eigenvalues --   -0.37853
  Beta virt. eigenvalues --   -0.00707   0.01648   0.03545   0.03867   0.04303
  Beta virt. eigenvalues --    0.06848   0.07358   0.07963   0.08633   0.08832
  Beta virt. eigenvalues --    0.10990   0.12650   0.13834   0.17943   0.19397

 Mulliken charges and spin densities:
               1          2
     1  O   -0.087363   0.068890
     2  C   -0.251679   0.027657
     3  C   -0.326109   0.003477
     4  C   -0.335872   0.983643
     5  H    0.147251  -0.000345
     6  H    0.141695   0.000261
     7  H    0.145260  -0.000073
     8  H    0.137385  -0.007860
     9  H    0.126351  -0.001532
    10  H    0.160282  -0.034259
    11  H    0.142799  -0.039860
 Sum of Mulliken charges =  -0.00000   1.00000

 Dipole moment (field-independent basis, Debye):
    X=             -1.0332    Y=             -0.0610    Z=              1.0058  Tot=              1.4432
 Quadrupole moment (field-independent basis, Debye-Ang):
   XX=            -24.8995   YY=            -27.2404   ZZ=            -26.2672
   XY=             -1.3952   XZ=              0.2968   YZ=             -0.0299

 Normal termination of Gaussian 16 at Mon Mar 11 20:56:45 2019.
