 Gaussian 16, Revision A.03,
 Gaussian 16:  EM64L-G16RevA.03 25-Dec-2016

 ----------------------------------------------
 #p m062x/6-311+g(2df,2p) Opt=(CalcFC,ModRedun)
 ----------------------------------------------

 ----------------------------------------
 Gaussian Input Prepared from Scan Object
 ----------------------------------------
 Symbolic Z-matrix:
 Charge =  0 Multiplicity = 2

 SCF Done:  E(UM062X) =  -193.653867101     A.U. after   13 cycles

  Exact polarizability:   0.000   0.000   0.000   0.000   0.000   0.000
 Approx polarizability:  49.942  -0.257  46.058  -0.050   0.116  44.507

 Optimization completed.
    -- Stationary point found.
 SCF Done:  E(UM062X) =  -193.652673492     A.U. after   12 cycles
 SCF Done:  E(UM062X) =  -193.653696512     A.U. after   12 cycles
 SCF Done:  E(UM062X) =  -193.653700795     A.U. after    9 cycles
 Optimization completed.
 SCF Done:  E(UM062X) =  -193.652185536     A.U. after   12 cycles
 SCF Done:  E(UM062X) =  -193.653243972     A.U. after   12 cycles
 SCF Done:  E(UM062X) =  -193.653248070     A.U. after    9 cycles
 SCF Done:  E(UM062X) =  -193.651509361     A.U. after   12 cycles
 SCF Done:  E(UM062X) =  -193.652630963     A.U. after   11 cycles
 SCF Done:  E(UM062X) =  -193.652636011     A.U. after    9 cycles
 SCF Done:  E(UM062X) =  -193.651808651     A.U. after   12 cycles
 SCF Done:  E(UM062X) =  -193.652921405     A.U. after   12 cycles
 SCF Done:  E(UM062X) =  -193.652929326     A.U. after   10 cycles
 SCF Done:  E(UM062X) =  -193.652929458     A.U. after    8 cycles
 SCF Done:  E(UM062X) =  -193.652407356     A.U. after   12 cycles
 SCF Done:  E(UM062X) =  -193.653457882     A.U. after   12 cycles
 SCF Done:  E(UM062X) =  -193.653462792     A.U. after    9 cycles
    -- Stationary point found.
 SCF Done:  E(UM062X) =  -193.652735012     A.U. after   12 cycles
 SCF Done:  E(UM062X) =  -193.653744277     A.U. after   12 cycles
 SCF Done:  E(UM062X) =  -193.653748149     A.U. after    8 cycles
 Optimization completed.
    -- Stationary point found.

                         Standard orientation:
 ---------------------------------------------------------------------
 Center     Atomic      Atomic             Coordinates (Angstroms)
 Number     Number       Type             X           Y           Z
 ---------------------------------------------------------------------
      1          8           0        0.584417   -0.458587    0.025028
      2          6           0       -0.443737    0.516977   -0.043385
      3          6           0       -1.776486   -0.190263    0.018899
      4          6           0        1.836051    0.031839   -0.040597
      5          1           0       -0.335066    1.081256   -0.973641
      6          1           0       -0.328968    1.213109    0.794138
      7          1           0       -1.877360   -0.882270   -0.815386
      8          1           0       -1.865217   -0.752358    0.947052
      9          1           0       -2.588564    0.533823   -0.028876
     10          1           0        2.610388   -0.716642   -0.043177
     11          1           0        2.014477    1.040456    0.310161
 ---------------------------------------------------------------------

 The electronic state is 2-A.
 Alpha  occ. eigenvalues --  -19.65477 -10.59145 -10.57540 -10.53025  -1.19496
 Alpha  occ. eigenvalues --   -0.87450  -0.75843  -0.70082  -0.57970  -0.56831
 Alpha  occ. eigenvalues --   -0.55197  -0.47279  -0.45854  -0.44030  -0.41150
 Alpha  occ. eigenvalues --   -0.39458  -0.23021
 Alpha virt. eigenvalues --    0.01942   0.03543   0.04096   0.04840   0.05867
 Alpha virt. eigenvalues --    0.07175   0.08308   0.09178   0.09799   0.11045
 Alpha virt. eigenvalues --    0.13534   0.15056   0.18425   0.18894   0.20053

  Beta  occ. eigenvalues --  -19.65054 -10.59150 -10.56851 -10.53026  -1.18119
  Beta  occ. eigenvalues --   -0.87040  -0.74140  -0.68781  -0.56844  -0.55579
  Beta  occ. eigenvalues --   -0.54236  -0.45952  -0.45213  -0.43611  -0.40452
  Beta  occ. eigenvalues --   -0.37430
  Beta virt. eigenvalues --   -0.01167   0.01716   0.03185   0.04045   0.05330
  Beta virt. eigenvalues --    0.05907   0.07058   0.08110   0.09229   0.09611
  Beta virt. eigenvalues --    0.11309   0.13439   0.13947   0.18497   0.19033

 Mulliken charges and spin densities:
               1          2
     1  O   -0.095481   0.055376
     2  C   -0.196455   0.026810
     3  C   -0.414180  -0.007212
     4  C   -0.299824   0.993742
     5  H    0.147450   0.000663
     6  H    0.140291   0.002638
     7  H    0.144221  -0.000001
     8  H    0.142150  -0.000393
     9  H    0.127896  -0.000389
    10  H    0.160329  -0.035455
    11  H    0.143602  -0.035781
 Sum of Mulliken charges =  -0.00000   1.00000

 Dipole moment (field-independent basis, Debye):
    X=             -0.7807    Y=              1.0799    Z=              0.2624  Tot=              1.3581
 Quadrupole moment (field-independent basis, Debye-Ang):
   XX=            -24.6344   YY=            -26.2032   ZZ=            -27.2201
   XY=             -0.2402   XZ=              0.7182   YZ=              0.4551

 Normal termination of Gaussian 16 at Tue Apr 23 23:21:37 2019.
