 Gaussian 16, Revision A.03,
 Gaussian 16:  EM64L-G16RevA.03 25-Dec-2016

 ----------------------------------------------------------------------
 #p m062x/6-311+g(2df,2p) opt=(calcfc,verytight,gdiis,maxcycles=900) fr
 eq iop(7/33=1,2/16=3)
 ----------------------------------------------------------------------

 ------------------------------
 Gaussian input prepared by ASE
 ------------------------------
 Symbolic Z-matrix:
 Charge =  0 Multiplicity = 2

 SCF Done:  E(UM062X) =  -193.653857014     A.U. after   13 cycles
 SCF Done:  E(UM062X) =  -193.653867092     A.U. after   11 cycles
 SCF Done:  E(UM062X) =  -193.653867101     A.U. after    7 cycles
 SCF Done:  E(UM062X) =  -193.653867101     A.U. after    4 cycles
 SCF Done:  E(UM062X) =  -193.653867101     A.U. after    3 cycles
 SCF Done:  E(UM062X) =  -193.653867101     A.U. after    3 cycles
 SCF Done:  E(UM062X) =  -193.653867101     A.U. after    2 cycles
 Optimization completed.
    -- Stationary point found.
 Normal termination of Gaussian 16 at Wed Mar 13 04:17:46 2019.

 ----------------------------------------------------------------------
 #P Geom=AllCheck Guess=TCheck SCRF=Check Test GenChk UM062X/6-311+G(2d
 f,2p) Freq
 ----------------------------------------------------------------------

 Structure from the checkpoint file:  "/scratch/underkoffler.c/gaussian_scratch/Gau-29426.chk"
 ------------------------------
 Gaussian input prepared by ASE
 ------------------------------
 Charge =  0 Multiplicity = 2

                         Standard orientation:
 ---------------------------------------------------------------------
 Center     Atomic      Atomic             Coordinates (Angstroms)
 Number     Number       Type             X           Y           Z
 ---------------------------------------------------------------------
      1          8           0        0.584747   -0.459802    0.004055
      2          6           0       -0.443739    0.516657    0.043814
      3          6           0       -1.775907   -0.190332   -0.029301
      4          6           0        1.837600    0.031675    0.033731
      5          1           0       -0.313623    1.203430   -0.798908
      6          1           0       -0.349640    1.092765    0.968751
      7          1           0       -1.852421   -0.762387   -0.952423
      8          1           0       -1.888692   -0.873135    0.811022
      9          1           0       -2.588018    0.534696   -0.000160
     10          1           0        2.609623   -0.714965   -0.052029
     11          1           0        1.997067    1.050013   -0.298152
 ---------------------------------------------------------------------

 SCF Done:  E(UM062X) =  -193.653867101     A.U. after    1 cycles

 The electronic state is 2-A.
 Alpha  occ. eigenvalues --  -19.65523 -10.59171 -10.57540 -10.53048  -1.19533
 Alpha  occ. eigenvalues --   -0.87474  -0.75862  -0.70132  -0.57980  -0.56804
 Alpha  occ. eigenvalues --   -0.55241  -0.47135  -0.45907  -0.44050  -0.41043
 Alpha  occ. eigenvalues --   -0.39745  -0.23040
 Alpha virt. eigenvalues --    0.01925   0.03528   0.04107   0.04840   0.05876
 Alpha virt. eigenvalues --    0.07212   0.08350   0.09142   0.09734   0.11074
 Alpha virt. eigenvalues --    0.13515   0.15065   0.18408   0.18925   0.20113

  Beta  occ. eigenvalues --  -19.65089 -10.59180 -10.56847 -10.53049  -1.18137
  Beta  occ. eigenvalues --   -0.87068  -0.74171  -0.68848  -0.56844  -0.55543
  Beta  occ. eigenvalues --   -0.54283  -0.45904  -0.45159  -0.43627  -0.40375
  Beta  occ. eigenvalues --   -0.37609
  Beta virt. eigenvalues --   -0.01111   0.01686   0.03175   0.04048   0.05330
  Beta virt. eigenvalues --    0.05921   0.07073   0.08107   0.09220   0.09589
  Beta virt. eigenvalues --    0.11331   0.13429   0.13929   0.18478   0.19017

 Mulliken charges and spin densities:
               1          2
     1  O   -0.091953   0.058545
     2  C   -0.198845   0.025861
     3  C   -0.414254  -0.007541
     4  C   -0.296662   0.988032
     5  H    0.139061   0.003209
     6  H    0.149172   0.001372
     7  H    0.142115  -0.000326
     8  H    0.144257  -0.000039
     9  H    0.127887  -0.000361
    10  H    0.158327  -0.033780
    11  H    0.140894  -0.034970
 Sum of Mulliken charges =  -0.00000   1.00000

 Dipole moment (field-independent basis, Debye):
    X=             -0.8135    Y=              1.0903    Z=             -0.3458  Tot=              1.4036
 Quadrupole moment (field-independent basis, Debye-Ang):
   XX=            -24.7336   YY=            -26.1826   ZZ=            -27.2256
   XY=             -0.2290   XZ=             -0.9196   YZ=             -0.3209

  Exact polarizability:  53.237   0.068  39.387   0.220   0.278  38.962
 Approx polarizability:  49.942  -0.257  46.058  -0.050   0.116  44.507

                      1                      2                      3
                      A                      A                      A
 Frequencies --     99.6698               241.4068               293.2572
 Red. masses --      2.6599                 1.0568                 1.2556
 Frc consts  --      0.0156                 0.0363                 0.0636
 IR Inten    --      2.0274                 0.8660                 4.6857

                      4                      5                      6
                      A                      A                      A
 Frequencies --    303.8973               487.6049               569.1860
 Red. masses --      2.4564                 3.0341                 1.2916
 Frc consts  --      0.1337                 0.4250                 0.2465
 IR Inten    --      0.6946                 4.1441                49.2049

                      7                      8                      9
                      A                      A                      A
 Frequencies --    820.2571               884.0687              1073.0957
 Red. masses --      1.0883                 2.0033                 2.4215
 Frc consts  --      0.4314                 0.9225                 1.6429
 IR Inten    --      0.6841                 7.6168                20.7207

                     10                     11                     12
                      A                      A                      A
 Frequencies --   1121.2775              1185.7782              1233.4866
 Red. masses --      1.7656                 1.5490                 1.7511
 Frc consts  --      1.3079                 1.2832                 1.5698
 IR Inten    --      0.7096                 4.9318                27.3156

                     13                     14                     15
                      A                      A                      A
 Frequencies --   1309.2143              1314.9016              1402.1307
 Red. masses --      1.1466                 4.5607                 1.2195
 Frc consts  --      1.1580                 4.6458                 1.4125
 IR Inten    --     16.2146               240.1447                 0.3421

                     16                     17                     18
                      A                      A                      A
 Frequencies --   1434.5331              1491.1244              1493.9867
 Red. masses --      1.3881                 1.0386                 1.2168
 Frc consts  --      1.6830                 1.3605                 1.6002
 IR Inten    --     28.7720                 6.3021                 7.6772

                     19                     20                     21
                      A                      A                      A
 Frequencies --   1506.8894              1529.2033              3029.7878
 Red. masses --      1.0570                 1.0928                 1.0575
 Frc consts  --      1.4141                 1.5056                 5.7194
 IR Inten    --      3.3021                 3.2586                34.8786

                     22                     23                     24
                      A                      A                      A
 Frequencies --   3068.2082              3076.5343              3143.2003
 Red. masses --      1.1058                 1.0350                 1.0481
 Frc consts  --      6.1335                 5.7716                 6.1008
 IR Inten    --     28.8572                11.5975                22.6034

                     25                     26                     27
                      A                      A                      A
 Frequencies --   3152.3544              3154.5567              3287.9511
 Red. masses --      1.1023                 1.1038                 1.1219
 Frc consts  --      6.4537                 6.4716                 7.1458
 IR Inten    --     16.2513                18.1947                 7.0528

 - Thermochemistry -
 -------------------
 Temperature   298.150 Kelvin.  Pressure   1.00000 Atm.
 Atom     1 has atomic number  8 and mass  15.99491

 Molecular mass:    59.04969 amu.
 Principal axes and moments of inertia in atomic units:
                           1         2         3
     Eigenvalues --    57.89938 408.26693 442.61234
           X            0.99993   0.01088  -0.00546
           Y           -0.01098   0.99978  -0.01803
           Z            0.00526   0.01809   0.99982
 This molecule is an asymmetric top.
 Rotational symmetry number  1.
 Rotational temperatures (Kelvin)      1.49594     0.21215     0.19569
 Rotational constants (GHZ):          31.17030     4.42049     4.07748
 Zero-point vibrational energy     249466.6 (Joules/Mol)
                                   59.62395 (Kcal/Mol)
 Warning -- explicit consideration of   6 degrees of freedom as
           vibrations may cause significant error
 Vibrational temperatures:    143.40   347.33   421.93   437.24   701.55
          (Kelvin)            818.93  1180.17  1271.98  1543.95  1613.27
                             1706.07  1774.71  1883.67  1891.85  2017.35
                             2063.97  2145.40  2149.51  2168.08  2200.18
                             4359.19  4414.47  4426.45  4522.36  4535.53
                             4538.70  4730.63

 Zero-point correction=                           0.095017 (Hartree/Particle)
 Thermal correction to Energy=                    0.100606
 Thermal correction to Enthalpy=                  0.101550
 Thermal correction to Gibbs Free Energy=         0.066692
 Sum of electronic and zero-point Energies=           -193.558850
 Sum of electronic and thermal Energies=              -193.553261
 Sum of electronic and thermal Enthalpies=            -193.552317
 Sum of electronic and thermal Free Energies=         -193.587175

                     E (Thermal)             CV                S
                      KCal/Mol        Cal/Mol-Kelvin    Cal/Mol-Kelvin
 Total                   63.131             18.299             73.366
 Electronic               0.000              0.000              1.377
 Translational            0.889              2.981             38.148
 Rotational               0.889              2.981             23.863
 Vibrational             61.354             12.338              9.978
 Vibration     1          0.604              1.949              3.461
 Vibration     2          0.658              1.777              1.792
 Vibration     3          0.688              1.686              1.455
 Vibration     4          0.695              1.666              1.395
 Vibration     5          0.844              1.278              0.690
 Vibration     6          0.925              1.098              0.506

                           ! Non-Optimized Parameters !
 Normal termination of Gaussian 16 at Wed Mar 13 04:20:16 2019.
