 Gaussian 16, Revision A.03,
 Gaussian 16:  EM64L-G16RevA.03 25-Dec-2016

 ----------------------------------------------
 #p m062x/6-311+g(2df,2p) Opt=(CalcFC,ModRedun)
 ----------------------------------------------

 ----------------------------------------
 Gaussian Input Prepared from Scan Object
 ----------------------------------------
 Symbolic Z-matrix:
 Charge =  0 Multiplicity = 2

 SCF Done:  E(UM062X) =  -193.653568808     A.U. after   14 cycles

  Exact polarizability:   0.000   0.000   0.000   0.000   0.000   0.000
 Approx polarizability:  49.036  -2.510  46.059  -0.213  -0.476  45.594

 Optimization completed.
    -- Stationary point found.
 SCF Done:  E(UM062X) =  -193.652082013     A.U. after   11 cycles
 SCF Done:  E(UM062X) =  -193.653279894     A.U. after   11 cycles
 SCF Done:  E(UM062X) =  -193.653297171     A.U. after    9 cycles
 Optimization completed.
 SCF Done:  E(UM062X) =  -193.651278377     A.U. after   11 cycles
 SCF Done:  E(UM062X) =  -193.652498234     A.U. after   11 cycles
 SCF Done:  E(UM062X) =  -193.652522598     A.U. after    9 cycles
 SCF Done:  E(UM062X) =  -193.650064831     A.U. after   11 cycles
 SCF Done:  E(UM062X) =  -193.651364255     A.U. after   11 cycles
 SCF Done:  E(UM062X) =  -193.651397547     A.U. after   10 cycles
 SCF Done:  E(UM062X) =  -193.652536405     A.U. after   11 cycles
 SCF Done:  E(UM062X) =  -193.652554025     A.U. after    9 cycles
 SCF Done:  E(UM062X) =  -193.652554141     A.U. after    8 cycles
 SCF Done:  E(UM062X) =  -193.652009998     A.U. after   11 cycles
 SCF Done:  E(UM062X) =  -193.653284989     A.U. after   11 cycles
 SCF Done:  E(UM062X) =  -193.653300141     A.U. after    9 cycles
 SCF Done:  E(UM062X) =  -193.653300193     A.U. after    8 cycles
    -- Stationary point found.
 SCF Done:  E(UM062X) =  -193.652335644     A.U. after   11 cycles
 SCF Done:  E(UM062X) =  -193.653556810     A.U. after   11 cycles
 SCF Done:  E(UM062X) =  -193.653568796     A.U. after    9 cycles
 Optimization completed.
    -- Stationary point found.

                         Standard orientation:
 ---------------------------------------------------------------------
 Center     Atomic      Atomic             Coordinates (Angstroms)
 Number     Number       Type             X           Y           Z
 ---------------------------------------------------------------------
      1          8           0        0.716486    0.485389   -0.369009
      2          6           0       -0.540449    0.606430    0.278383
      3          6           0       -1.488870   -0.506687   -0.122937
      4          6           0        1.512699   -0.495207    0.100461
      5          1           0       -0.930597    1.577802   -0.019004
      6          1           0       -0.383781    0.617147    1.361965
      7          1           0       -1.631443   -0.507442   -1.202541
      8          1           0       -1.090648   -1.476440    0.172760
      9          1           0       -2.456898   -0.367324    0.357374
     10          1           0        2.471440   -0.555734   -0.387788
     11          1           0        1.389757   -0.798337    1.133857
 ---------------------------------------------------------------------

 The electronic state is 2-A.
 Alpha  occ. eigenvalues --  -19.65430 -10.59180 -10.57508 -10.52983  -1.19432
 Alpha  occ. eigenvalues --   -0.86926  -0.77352  -0.68990  -0.58262  -0.56904
 Alpha  occ. eigenvalues --   -0.53626  -0.49223  -0.45798  -0.43050  -0.41535
 Alpha  occ. eigenvalues --   -0.39501  -0.23005
 Alpha virt. eigenvalues --    0.01888   0.03643   0.03920   0.04236   0.06818
 Alpha virt. eigenvalues --    0.07350   0.07952   0.08412   0.08695   0.11804
 Alpha virt. eigenvalues --    0.12654   0.13727   0.17736   0.19335   0.19707

  Beta  occ. eigenvalues --  -19.64987 -10.59189 -10.56808 -10.52972  -1.18022
  Beta  occ. eigenvalues --   -0.86550  -0.75658  -0.67563  -0.57608  -0.55811
  Beta  occ. eigenvalues --   -0.51358  -0.48691  -0.45399  -0.42688  -0.39696
  Beta  occ. eigenvalues --   -0.37852
  Beta virt. eigenvalues --   -0.00707   0.01648   0.03545   0.03867   0.04303
  Beta virt. eigenvalues --    0.06848   0.07357   0.07963   0.08633   0.08832
  Beta virt. eigenvalues --    0.10989   0.12650   0.13834   0.17944   0.19397

 Mulliken charges and spin densities:
               1          2
     1  O   -0.087353   0.068884
     2  C   -0.251646   0.027666
     3  C   -0.326117   0.003477
     4  C   -0.335880   0.983654
     5  H    0.147255  -0.000344
     6  H    0.141667   0.000260
     7  H    0.145253  -0.000072
     8  H    0.137382  -0.007864
     9  H    0.126345  -0.001532
    10  H    0.160287  -0.034263
    11  H    0.142807  -0.039867
 Sum of Mulliken charges =  -0.00000   1.00000

 Dipole moment (field-independent basis, Debye):
    X=             -1.0329    Y=             -0.0608    Z=              1.0057  Tot=              1.4429
 Quadrupole moment (field-independent basis, Debye-Ang):
   XX=            -24.8995   YY=            -27.2407   ZZ=            -26.2669
   XY=             -1.3952   XZ=              0.2966   YZ=             -0.0298

 Normal termination of Gaussian 16 at Tue Mar 12 01:31:55 2019.
