 Gaussian 16, Revision A.03,
 Gaussian 16:  EM64L-G16RevA.03 25-Dec-2016

 ----------------------------------------------
 #p m062x/6-311+g(2df,2p) Opt=(CalcFC,ModRedun)
 ----------------------------------------------

 ----------------------------------------
 Gaussian Input Prepared from Scan Object
 ----------------------------------------
 Symbolic Z-matrix:
 Charge =  0 Multiplicity = 2

 SCF Done:  E(UM062X) =  -193.653568808     A.U. after   14 cycles

  Exact polarizability:   0.000   0.000   0.000   0.000   0.000   0.000
 Approx polarizability:  49.036  -2.510  46.059  -0.213  -0.476  45.594

 Optimization completed.
    -- Stationary point found.
 SCF Done:  E(UM062X) =  -193.652390525     A.U. after   12 cycles
 SCF Done:  E(UM062X) =  -193.653340508     A.U. after   12 cycles
 SCF Done:  E(UM062X) =  -193.653345457     A.U. after    9 cycles
 SCF Done:  E(UM062X) =  -193.653345490     A.U. after    7 cycles
 Optimization completed.
 SCF Done:  E(UM062X) =  -193.651761170     A.U. after   12 cycles
 SCF Done:  E(UM062X) =  -193.652786008     A.U. after   12 cycles
 SCF Done:  E(UM062X) =  -193.652792448     A.U. after    9 cycles
 SCF Done:  E(UM062X) =  -193.651000929     A.U. after   12 cycles
 SCF Done:  E(UM062X) =  -193.652129124     A.U. after   12 cycles
 SCF Done:  E(UM062X) =  -193.652501203     A.U. after   12 cycles
 SCF Done:  E(UM062X) =  -193.652512137     A.U. after    9 cycles
 SCF Done:  E(UM062X) =  -193.652512387     A.U. after    8 cycles
 SCF Done:  E(UM062X) =  -193.652369539     A.U. after   12 cycles
 SCF Done:  E(UM062X) =  -193.653294707     A.U. after   12 cycles
 SCF Done:  E(UM062X) =  -193.653307273     A.U. after   10 cycles
 SCF Done:  E(UM062X) =  -193.653307511     A.U. after    8 cycles
    -- Stationary point found.
 SCF Done:  E(UM062X) =  -193.652650544     A.U. after   12 cycles
 SCF Done:  E(UM062X) =  -193.653563504     A.U. after   11 cycles
 SCF Done:  E(UM062X) =  -193.653568782     A.U. after    9 cycles
 Optimization completed.
    -- Stationary point found.

                         Standard orientation:
 ---------------------------------------------------------------------
 Center     Atomic      Atomic             Coordinates (Angstroms)
 Number     Number       Type             X           Y           Z
 ---------------------------------------------------------------------
      1          8           0        0.716581    0.485514   -0.368815
      2          6           0       -0.540534    0.606443    0.278261
      3          6           0       -1.488848   -0.506716   -0.122939
      4          6           0        1.512708   -0.495318    0.100363
      5          1           0       -0.930774    1.577789   -0.019183
      6          1           0       -0.384043    0.617316    1.361848
      7          1           0       -1.631829   -0.507697   -1.202462
      8          1           0       -1.090465   -1.476409    0.172693
      9          1           0       -2.456811   -0.367425    0.357549
     10          1           0        2.471553   -0.555493   -0.387730
     11          1           0        1.389769   -0.798652    1.133701
 ---------------------------------------------------------------------

 The electronic state is 2-A.
 Alpha  occ. eigenvalues --  -19.65429 -10.59180 -10.57508 -10.52982  -1.19430
 Alpha  occ. eigenvalues --   -0.86927  -0.77353  -0.68988  -0.58262  -0.56904
 Alpha  occ. eigenvalues --   -0.53627  -0.49223  -0.45798  -0.43050  -0.41536
 Alpha  occ. eigenvalues --   -0.39498  -0.23007
 Alpha virt. eigenvalues --    0.01888   0.03643   0.03920   0.04236   0.06818
 Alpha virt. eigenvalues --    0.07350   0.07952   0.08412   0.08696   0.11803
 Alpha virt. eigenvalues --    0.12654   0.13727   0.17735   0.19334   0.19707

  Beta  occ. eigenvalues --  -19.64986 -10.59189 -10.56809 -10.52971  -1.18021
  Beta  occ. eigenvalues --   -0.86551  -0.75660  -0.67561  -0.57608  -0.55811
  Beta  occ. eigenvalues --   -0.51359  -0.48691  -0.45399  -0.42688  -0.39694
  Beta  occ. eigenvalues --   -0.37852
  Beta virt. eigenvalues --   -0.00708   0.01647   0.03545   0.03867   0.04303
  Beta virt. eigenvalues --    0.06848   0.07358   0.07963   0.08633   0.08832
  Beta virt. eigenvalues --    0.10990   0.12650   0.13835   0.17943   0.19396

 Mulliken charges and spin densities:
               1          2
     1  O   -0.087374   0.068889
     2  C   -0.251688   0.027638
     3  C   -0.326098   0.003488
     4  C   -0.335849   0.983620
     5  H    0.147244  -0.000344
     6  H    0.141698   0.000266
     7  H    0.145257  -0.000073
     8  H    0.137384  -0.007862
     9  H    0.126348  -0.001532
    10  H    0.160276  -0.034248
    11  H    0.142804  -0.039843
 Sum of Mulliken charges =  -0.00000   1.00000

 Dipole moment (field-independent basis, Debye):
    X=             -1.0331    Y=             -0.0610    Z=              1.0056  Tot=              1.4430
 Quadrupole moment (field-independent basis, Debye-Ang):
   XX=            -24.8981   YY=            -27.2409   ZZ=            -26.2673
   XY=             -1.3950   XZ=              0.2972   YZ=             -0.0299

 Normal termination of Gaussian 16 at Tue Mar 12 02:04:20 2019.
