 Gaussian 16, Revision A.03,
 Gaussian 16:  EM64L-G16RevA.03 25-Dec-2016

 ----------------------------------------------
 #p m062x/6-311+g(2df,2p) Opt=(CalcFC,ModRedun)
 ----------------------------------------------

 ----------------------------------------
 Gaussian Input Prepared from Scan Object
 ----------------------------------------
 Symbolic Z-matrix:
 Charge =  0 Multiplicity = 2

 SCF Done:  E(UM062X) =  -193.653867101     A.U. after   13 cycles

  Exact polarizability:   0.000   0.000   0.000   0.000   0.000   0.000
 Approx polarizability:  49.942  -0.257  46.058  -0.050   0.116  44.507

 Optimization completed.
    -- Stationary point found.
 SCF Done:  E(UM062X) =  -193.653545009     A.U. after   12 cycles
 SCF Done:  E(UM062X) =  -193.653637645     A.U. after   12 cycles
 SCF Done:  E(UM062X) =  -193.653638087     A.U. after    9 cycles
 Optimization completed.
 SCF Done:  E(UM062X) =  -193.652858110     A.U. after   12 cycles
 SCF Done:  E(UM062X) =  -193.653000149     A.U. after   12 cycles
 SCF Done:  E(UM062X) =  -193.653002088     A.U. after   10 cycles
 SCF Done:  E(UM062X) =  -193.651879817     A.U. after   12 cycles
 SCF Done:  E(UM062X) =  -193.652059405     A.U. after   11 cycles
 SCF Done:  E(UM062X) =  -193.652062440     A.U. after   10 cycles
 SCF Done:  E(UM062X) =  -193.652729857     A.U. after   10 cycles
 SCF Done:  E(UM062X) =  -193.653355800     A.U. after   12 cycles
 SCF Done:  E(UM062X) =  -193.653467386     A.U. after   12 cycles
 SCF Done:  E(UM062X) =  -193.653469006     A.U. after   10 cycles
 SCF Done:  E(UM062X) =  -193.653751662     A.U. after   12 cycles
 SCF Done:  E(UM062X) =  -193.653832185     A.U. after   12 cycles
 SCF Done:  E(UM062X) =  -193.653833434     A.U. after   10 cycles
    -- Stationary point found.
 SCF Done:  E(UM062X) =  -193.653699278     A.U. after   12 cycles
 SCF Done:  E(UM062X) =  -193.653747689     A.U. after   11 cycles
 SCF Done:  E(UM062X) =  -193.653748152     A.U. after    9 cycles
 Optimization completed.
    -- Stationary point found.

                         Standard orientation:
 ---------------------------------------------------------------------
 Center     Atomic      Atomic             Coordinates (Angstroms)
 Number     Number       Type             X           Y           Z
 ---------------------------------------------------------------------
      1          8           0        0.584391   -0.458455    0.025048
      2          6           0       -0.443811    0.517140   -0.043487
      3          6           0       -1.776427   -0.190385    0.018970
      4          6           0        1.836078    0.031788   -0.040712
      5          1           0       -0.335316    1.081227   -0.973868
      6          1           0       -0.329089    1.213494    0.793889
      7          1           0       -1.877074   -0.882624   -0.815147
      8          1           0       -1.864986   -0.752290    0.947253
      9          1           0       -2.588689    0.533479   -0.028994
     10          1           0        2.610197   -0.716895   -0.043182
     11          1           0        2.014787    1.039997    0.311039
 ---------------------------------------------------------------------

 The electronic state is 2-A.
 Alpha  occ. eigenvalues --  -19.65476 -10.59146 -10.57540 -10.53025  -1.19494
 Alpha  occ. eigenvalues --   -0.87450  -0.75843  -0.70081  -0.57971  -0.56830
 Alpha  occ. eigenvalues --   -0.55195  -0.47280  -0.45853  -0.44028  -0.41150
 Alpha  occ. eigenvalues --   -0.39457  -0.23024
 Alpha virt. eigenvalues --    0.01942   0.03543   0.04096   0.04840   0.05868
 Alpha virt. eigenvalues --    0.07176   0.08307   0.09178   0.09798   0.11042
 Alpha virt. eigenvalues --    0.13533   0.15055   0.18424   0.18895   0.20053

  Beta  occ. eigenvalues --  -19.65054 -10.59151 -10.56851 -10.53026  -1.18117
  Beta  occ. eigenvalues --   -0.87040  -0.74140  -0.68780  -0.56845  -0.55578
  Beta  occ. eigenvalues --   -0.54234  -0.45952  -0.45213  -0.43609  -0.40452
  Beta  occ. eigenvalues --   -0.37429
  Beta virt. eigenvalues --   -0.01169   0.01717   0.03185   0.04045   0.05330
  Beta virt. eigenvalues --    0.05907   0.07058   0.08110   0.09229   0.09611
  Beta virt. eigenvalues --    0.11307   0.13438   0.13947   0.18496   0.19034

 Mulliken charges and spin densities:
               1          2
     1  O   -0.095490   0.055386
     2  C   -0.196484   0.026805
     3  C   -0.414100  -0.007212
     4  C   -0.299797   0.993663
     5  H    0.147465   0.000652
     6  H    0.140287   0.002632
     7  H    0.144230  -0.000000
     8  H    0.142151  -0.000393
     9  H    0.127890  -0.000389
    10  H    0.160291  -0.035421
    11  H    0.143557  -0.035722
 Sum of Mulliken charges =  -0.00000   1.00000

 Dipole moment (field-independent basis, Debye):
    X=             -0.7807    Y=              1.0795    Z=              0.2631  Tot=              1.3579
 Quadrupole moment (field-independent basis, Debye-Ang):
   XX=            -24.6351   YY=            -26.2033   ZZ=            -27.2191
   XY=             -0.2413   XZ=              0.7205   YZ=              0.4559

 Normal termination of Gaussian 16 at Tue Apr 23 22:49:47 2019.
