 Gaussian 16, Revision A.03,
 Gaussian 16:  EM64L-G16RevA.03 25-Dec-2016

 ----------------------------------------------
 #p m062x/6-311+g(2df,2p) Opt=(CalcFC,ModRedun)
 ----------------------------------------------

 ----------------------------------------
 Gaussian Input Prepared from Scan Object
 ----------------------------------------
 Symbolic Z-matrix:
 Charge =  0 Multiplicity = 2

 SCF Done:  E(UM062X) =  -193.653867101     A.U. after   13 cycles

  Exact polarizability:   0.000   0.000   0.000   0.000   0.000   0.000
 Approx polarizability:  49.942  -0.257  46.058  -0.050   0.116  44.507

 Optimization completed.
    -- Stationary point found.
 SCF Done:  E(UM062X) =  -193.640491246     A.U. after   12 cycles
 SCF Done:  E(UM062X) =  -193.649389562     A.U. after   12 cycles
 SCF Done:  E(UM062X) =  -193.651673042     A.U. after   12 cycles
 SCF Done:  E(UM062X) =  -193.651691412     A.U. after    9 cycles
 Optimization completed.
 SCF Done:  E(UM062X) =  -193.634703582     A.U. after   12 cycles
 SCF Done:  E(UM062X) =  -193.644813081     A.U. after   11 cycles
 SCF Done:  E(UM062X) =  -193.649043866     A.U. after   12 cycles
 SCF Done:  E(UM062X) =  -193.649093457     A.U. after   10 cycles
 SCF Done:  E(UM062X) =  -193.649095014     A.U. after    8 cycles
 SCF Done:  E(UM062X) =  -193.635841207     A.U. after   12 cycles
 SCF Done:  E(UM062X) =  -193.647335366     A.U. after   12 cycles
 SCF Done:  E(UM062X) =  -193.651628085     A.U. after   12 cycles
 SCF Done:  E(UM062X) =  -193.651679822     A.U. after   10 cycles
 SCF Done:  E(UM062X) =  -193.651680444     A.U. after    7 cycles
    -- Stationary point found.
 SCF Done:  E(UM062X) =  -193.641909209     A.U. after   12 cycles
 SCF Done:  E(UM062X) =  -193.651688077     A.U. after   12 cycles
 SCF Done:  E(UM062X) =  -193.653850421     A.U. after   12 cycles
 SCF Done:  E(UM062X) =  -193.653866740     A.U. after   10 cycles
 SCF Done:  E(UM062X) =  -193.653867085     A.U. after    8 cycles
 Optimization completed.
    -- Stationary point found.

                         Standard orientation:
 ---------------------------------------------------------------------
 Center     Atomic      Atomic             Coordinates (Angstroms)
 Number     Number       Type             X           Y           Z
 ---------------------------------------------------------------------
      1          8           0        0.584721   -0.459779    0.003965
      2          6           0       -0.443734    0.516726    0.043715
      3          6           0       -1.775907   -0.190350   -0.029240
      4          6           0        1.837591    0.031638    0.033812
      5          1           0       -0.313596    1.203475   -0.799004
      6          1           0       -0.349656    1.092813    0.968666
      7          1           0       -1.852314   -0.762448   -0.952330
      8          1           0       -1.888322   -0.873073    0.811175
      9          1           0       -2.588292    0.534385   -0.000026
     10          1           0        2.609586   -0.715023   -0.052015
     11          1           0        1.997127    1.050018   -0.297911
 ---------------------------------------------------------------------

 The electronic state is 2-A.
 Alpha  occ. eigenvalues --  -19.65523 -10.59171 -10.57540 -10.53048  -1.19533
 Alpha  occ. eigenvalues --   -0.87474  -0.75861  -0.70132  -0.57980  -0.56804
 Alpha  occ. eigenvalues --   -0.55241  -0.47135  -0.45906  -0.44050  -0.41042
 Alpha  occ. eigenvalues --   -0.39746  -0.23040
 Alpha virt. eigenvalues --    0.01925   0.03528   0.04107   0.04840   0.05876
 Alpha virt. eigenvalues --    0.07212   0.08350   0.09142   0.09734   0.11074
 Alpha virt. eigenvalues --    0.13514   0.15064   0.18409   0.18925   0.20114

  Beta  occ. eigenvalues --  -19.65089 -10.59180 -10.56847 -10.53049  -1.18137
  Beta  occ. eigenvalues --   -0.87068  -0.74171  -0.68848  -0.56844  -0.55543
  Beta  occ. eigenvalues --   -0.54283  -0.45903  -0.45159  -0.43627  -0.40374
  Beta  occ. eigenvalues --   -0.37610
  Beta virt. eigenvalues --   -0.01111   0.01686   0.03175   0.04048   0.05330
  Beta virt. eigenvalues --    0.05921   0.07073   0.08107   0.09220   0.09589
  Beta virt. eigenvalues --    0.11331   0.13428   0.13929   0.18478   0.19018

 Mulliken charges and spin densities:
               1          2
     1  O   -0.091944   0.058543
     2  C   -0.198865   0.025854
     3  C   -0.414255  -0.007537
     4  C   -0.296663   0.988033
     5  H    0.139069   0.003208
     6  H    0.149170   0.001374
     7  H    0.142111  -0.000326
     8  H    0.144263  -0.000039
     9  H    0.127894  -0.000361
    10  H    0.158326  -0.033779
    11  H    0.140895  -0.034971
 Sum of Mulliken charges =  -0.00000   1.00000

 Dipole moment (field-independent basis, Debye):
    X=             -0.8134    Y=              1.0904    Z=             -0.3457  Tot=              1.4036
 Quadrupole moment (field-independent basis, Debye-Ang):
   XX=            -24.7332   YY=            -26.1829   ZZ=            -27.2256
   XY=             -0.2292   XZ=             -0.9197   YZ=             -0.3209

 Normal termination of Gaussian 16 at Fri Mar 29 11:07:40 2019.
