 Gaussian 16, Revision A.03,
 Gaussian 16:  EM64L-G16RevA.03 25-Dec-2016

 ----------------------------------------------
 #p m062x/6-311+g(2df,2p) Opt=(CalcFC,ModRedun)
 ----------------------------------------------

 ----------------------------------------
 Gaussian Input Prepared from Scan Object
 ----------------------------------------
 Symbolic Z-matrix:
 Charge =  0 Multiplicity = 1

 SCF Done:  E(RM062X) =  -194.313677391     A.U. after   11 cycles

  Exact polarizability:   0.000   0.000   0.000   0.000   0.000   0.000
 Approx polarizability:  49.365   1.345  47.014  -0.593   0.333  47.242

 Optimization completed.
    -- Stationary point found.
 SCF Done:  E(RM062X) =  -194.312515666     A.U. after    9 cycles
 SCF Done:  E(RM062X) =  -194.313512206     A.U. after    9 cycles
 SCF Done:  E(RM062X) =  -194.313527481     A.U. after    8 cycles
 SCF Done:  E(RM062X) =  -194.313528740     A.U. after    8 cycles
 Optimization completed.
 SCF Done:  E(RM062X) =  -194.312134315     A.U. after    9 cycles
 SCF Done:  E(RM062X) =  -194.313127555     A.U. after    9 cycles
 SCF Done:  E(RM062X) =  -194.313132482     A.U. after    8 cycles
 SCF Done:  E(RM062X) =  -194.313132583     A.U. after    7 cycles
 SCF Done:  E(RM062X) =  -194.311501295     A.U. after    9 cycles
 SCF Done:  E(RM062X) =  -194.312607978     A.U. after    7 cycles
 SCF Done:  E(RM062X) =  -194.312608065     A.U. after    6 cycles
 SCF Done:  E(RM062X) =  -194.312518190     A.U. after   10 cycles
 SCF Done:  E(RM062X) =  -194.313425046     A.U. after    9 cycles
 SCF Done:  E(RM062X) =  -194.313432735     A.U. after    8 cycles
 SCF Done:  E(RM062X) =  -194.313433527     A.U. after    7 cycles
    -- Stationary point found.
 SCF Done:  E(RM062X) =  -194.312749041     A.U. after    9 cycles
 SCF Done:  E(RM062X) =  -194.313667159     A.U. after    9 cycles
 SCF Done:  E(RM062X) =  -194.313676328     A.U. after    8 cycles
 SCF Done:  E(RM062X) =  -194.313677370     A.U. after    7 cycles
 Optimization completed.
    -- Stationary point found.

                         Standard orientation:
 ---------------------------------------------------------------------
 Center     Atomic      Atomic             Coordinates (Angstroms)
 Number     Number       Type             X           Y           Z
 ---------------------------------------------------------------------
      1          8           0        0.664388   -0.566746   -0.378236
      2          6           0       -0.597804   -0.637789    0.245195
      3          6           0       -1.506808    0.534238   -0.089685
      4          6           0        1.483647    0.462177    0.112094
      5          1           0       -1.043846   -1.568070   -0.104522
      6          1           0       -0.466576   -0.717509    1.332152
      7          1           0       -2.501695    0.361219    0.320109
      8          1           0       -1.592256    0.645913   -1.170199
      9          1           0       -1.135028    1.469214    0.327580
     10          1           0        1.118244    1.452353   -0.174573
     11          1           0        1.558474    0.419297    1.204980
     12          1           0        2.473370    0.319795   -0.315255
 ---------------------------------------------------------------------

 The electronic state is 1-A.
 Alpha  occ. eigenvalues --  -19.62041 -10.57929 -10.57286 -10.52469  -1.15738
 Alpha  occ. eigenvalues --   -0.85666  -0.78095  -0.68584  -0.56220  -0.56154
 Alpha  occ. eigenvalues --   -0.52756  -0.48040  -0.46144  -0.44019  -0.41801
 Alpha  occ. eigenvalues --   -0.37875  -0.32900
 Alpha virt. eigenvalues --    0.01655   0.03266   0.03566   0.04385   0.06415
 Alpha virt. eigenvalues --    0.07082   0.07439   0.08087   0.08809   0.10808
 Alpha virt. eigenvalues --    0.11166   0.13663   0.17448   0.18606   0.19828

 Mulliken charges:
               1
     1  O   -0.175380
     2  C   -0.224955
     3  C   -0.376552
     4  C   -0.288248
     5  H    0.144000
     6  H    0.138495
     7  H    0.130783
     8  H    0.151749
     9  H    0.129147
    10  H    0.123271
    11  H    0.113259
    12  H    0.134433
 Sum of Mulliken charges =  -0.00000

 Dipole moment (field-independent basis, Debye):
    X=             -0.5125    Y=              0.8914    Z=              0.9366  Tot=              1.3909
 Quadrupole moment (field-independent basis, Debye-Ang):
   XX=            -25.0426   YY=            -27.2347   ZZ=            -27.3373
   XY=              1.9429   XZ=              0.5947   YZ=             -0.6785

 Normal termination of Gaussian 16 at Mon Mar 11 00:43:25 2019.
