 Gaussian 16, Revision A.03,
 Gaussian 16:  EM64L-G16RevA.03 25-Dec-2016

 ----------------------------------------------
 #p m062x/6-311+g(2df,2p) Opt=(CalcFC,ModRedun)
 ----------------------------------------------

 ----------------------------------------
 Gaussian Input Prepared from Scan Object
 ----------------------------------------
 Symbolic Z-matrix:
 Charge =  0 Multiplicity = 1

 SCF Done:  E(RM062X) =  -194.313677391     A.U. after   11 cycles

  Exact polarizability:   0.000   0.000   0.000   0.000   0.000   0.000
 Approx polarizability:  49.365   1.345  47.014  -0.593   0.333  47.242

 Optimization completed.
    -- Stationary point found.
 SCF Done:  E(RM062X) =  -194.312524237     A.U. after    9 cycles
 SCF Done:  E(RM062X) =  -194.313511499     A.U. after    9 cycles
 SCF Done:  E(RM062X) =  -194.313528171     A.U. after    8 cycles
 SCF Done:  E(RM062X) =  -194.313530206     A.U. after    8 cycles
 Optimization completed.
 SCF Done:  E(RM062X) =  -194.312095917     A.U. after    9 cycles
 SCF Done:  E(RM062X) =  -194.313147637     A.U. after    9 cycles
 SCF Done:  E(RM062X) =  -194.313157411     A.U. after    8 cycles
 SCF Done:  E(RM062X) =  -194.313158275     A.U. after    7 cycles
 SCF Done:  E(RM062X) =  -194.313158333     A.U. after    6 cycles
 SCF Done:  E(RM062X) =  -194.312914666     A.U. after    6 cycles
 SCF Done:  E(RM062X) =  -194.312514125     A.U. after    9 cycles
 SCF Done:  E(RM062X) =  -194.313476638     A.U. after    9 cycles
 SCF Done:  E(RM062X) =  -194.313479484     A.U. after    7 cycles
 SCF Done:  E(RM062X) =  -194.313479538     A.U. after    6 cycles
    -- Stationary point found.
 SCF Done:  E(RM062X) =  -194.312733394     A.U. after    9 cycles
 SCF Done:  E(RM062X) =  -194.313672914     A.U. after    9 cycles
 SCF Done:  E(RM062X) =  -194.313677198     A.U. after    8 cycles
 SCF Done:  E(RM062X) =  -194.313677376     A.U. after    7 cycles
 SCF Done:  E(RM062X) =  -194.313677391     A.U. after    5 cycles
 Optimization completed.
    -- Stationary point found.

                         Standard orientation:
 ---------------------------------------------------------------------
 Center     Atomic      Atomic             Coordinates (Angstroms)
 Number     Number       Type             X           Y           Z
 ---------------------------------------------------------------------
      1          8           0        0.664371   -0.566785   -0.378307
      2          6           0       -0.597753   -0.637806    0.245262
      3          6           0       -1.506694    0.534243   -0.089701
      4          6           0        1.483514    0.462203    0.112117
      5          1           0       -1.043893   -1.568035   -0.104468
      6          1           0       -0.466454   -0.717539    1.332206
      7          1           0       -2.501408    0.361648    0.320696
      8          1           0       -1.592703    0.645407   -1.170212
      9          1           0       -1.134527    1.469356    0.326889
     10          1           0        1.117728    1.452388   -0.174014
     11          1           0        1.558766    0.418896    1.204953
     12          1           0        2.473120    0.320313   -0.315663
 ---------------------------------------------------------------------

 The electronic state is 1-A.
 Alpha  occ. eigenvalues --  -19.62041 -10.57928 -10.57286 -10.52469  -1.15738
 Alpha  occ. eigenvalues --   -0.85666  -0.78095  -0.68585  -0.56220  -0.56154
 Alpha  occ. eigenvalues --   -0.52756  -0.48040  -0.46142  -0.44020  -0.41801
 Alpha  occ. eigenvalues --   -0.37876  -0.32901
 Alpha virt. eigenvalues --    0.01655   0.03267   0.03566   0.04385   0.06415
 Alpha virt. eigenvalues --    0.07081   0.07439   0.08087   0.08809   0.10808
 Alpha virt. eigenvalues --    0.11166   0.13663   0.17448   0.18604   0.19830

 Mulliken charges:
               1
     1  O   -0.175375
     2  C   -0.224922
     3  C   -0.376552
     4  C   -0.288268
     5  H    0.144002
     6  H    0.138492
     7  H    0.130774
     8  H    0.151750
     9  H    0.129132
    10  H    0.123257
    11  H    0.113270
    12  H    0.134440
 Sum of Mulliken charges =  -0.00000

 Dipole moment (field-independent basis, Debye):
    X=             -0.5125    Y=              0.8915    Z=              0.9367  Tot=              1.3910
 Quadrupole moment (field-independent basis, Debye-Ang):
   XX=            -25.0433   YY=            -27.2345   ZZ=            -27.3372
   XY=              1.9431   XZ=              0.5948   YZ=             -0.6787

 Normal termination of Gaussian 16 at Mon Mar 11 01:01:04 2019.
