 Gaussian 16, Revision A.03,
 Gaussian 16:  EM64L-G16RevA.03 25-Dec-2016

 ----------------------------------------------
 #p m062x/6-311+g(2df,2p) Opt=(CalcFC,ModRedun)
 ----------------------------------------------

 ----------------------------------------
 Gaussian Input Prepared from Scan Object
 ----------------------------------------
 Symbolic Z-matrix:
 Charge =  0 Multiplicity = 2

 SCF Done:  E(UM062X) =  -232.967421088     A.U. after   14 cycles

  Exact polarizability:   0.000   0.000   0.000   0.000   0.000   0.000
 Approx polarizability:  64.496   0.140  61.027   0.337  -0.221  58.872

 Optimization completed.
    -- Stationary point found.
 SCF Done:  E(UM062X) =  -232.956291186     A.U. after   13 cycles
 SCF Done:  E(UM062X) =  -232.964458359     A.U. after   12 cycles
 SCF Done:  E(UM062X) =  -232.965869880     A.U. after   13 cycles
 SCF Done:  E(UM062X) =  -232.965894540     A.U. after   11 cycles
 SCF Done:  E(UM062X) =  -232.965895393     A.U. after    9 cycles
 Optimization completed.
 SCF Done:  E(UM062X) =  -232.952088665     A.U. after   13 cycles
 SCF Done:  E(UM062X) =  -232.961371282     A.U. after   12 cycles
 SCF Done:  E(UM062X) =  -232.963744476     A.U. after   12 cycles
 SCF Done:  E(UM062X) =  -232.963861614     A.U. after   12 cycles
 SCF Done:  E(UM062X) =  -232.965711311     A.U. after   12 cycles
 SCF Done:  E(UM062X) =  -232.965907106     A.U. after   12 cycles
 SCF Done:  E(UM062X) =  -232.965928808     A.U. after   10 cycles
 SCF Done:  E(UM062X) =  -232.965928960     A.U. after    8 cycles
    -- Stationary point found.
 SCF Done:  E(UM062X) =  -232.958370668     A.U. after   13 cycles
 SCF Done:  E(UM062X) =  -232.966389122     A.U. after   12 cycles
 SCF Done:  E(UM062X) =  -232.967314668     A.U. after   13 cycles
 SCF Done:  E(UM062X) =  -232.967411736     A.U. after   12 cycles
 SCF Done:  E(UM062X) =  -232.967420110     A.U. after   10 cycles
 SCF Done:  E(UM062X) =  -232.967421040     A.U. after    8 cycles
 Optimization completed.
    -- Stationary point found.

                         Standard orientation:
 ---------------------------------------------------------------------
 Center     Atomic      Atomic             Coordinates (Angstroms)
 Number     Number       Type             X           Y           Z
 ---------------------------------------------------------------------
      1          8           0       -0.622186   -0.747926    0.157519
      2          6           0        0.417862    1.477883    0.042713
      3          6           0        1.729920   -0.739406   -0.013164
      4          6           0       -1.897557   -0.186121   -0.055129
      5          6           0        0.457698    0.006274   -0.208720
      6          1           0        1.335983    1.933525   -0.322728
      7          1           0       -0.419078    1.970272   -0.452411
      8          1           0        0.341458    1.699797    1.117339
      9          1           0        2.552325   -0.237322   -0.520168
     10          1           0        1.990593   -0.816120    1.051330
     11          1           0        1.641049   -1.752713   -0.402264
     12          1           0       -2.008837    0.142066   -1.091813
     13          1           0       -2.622392   -0.967490    0.155556
     14          1           0       -2.081159    0.659605    0.610810
 ---------------------------------------------------------------------

 The electronic state is 2-A.
 Alpha  occ. eigenvalues --  -19.64193 -10.58023 -10.58007 -10.52989 -10.52150
 Alpha  occ. eigenvalues --   -1.18206  -0.88255  -0.80444  -0.77375  -0.64310
 Alpha  occ. eigenvalues --   -0.55751  -0.55485  -0.54863  -0.49274  -0.46497
 Alpha  occ. eigenvalues --   -0.45894  -0.44555  -0.43014  -0.40526  -0.37537
 Alpha  occ. eigenvalues --   -0.21187
 Alpha virt. eigenvalues --    0.01707   0.02956   0.03631   0.04651   0.05490
 Alpha virt. eigenvalues --    0.06390   0.07331   0.08025   0.08189   0.09638
 Alpha virt. eigenvalues --    0.12055   0.13199   0.13606   0.14297   0.15494

  Beta  occ. eigenvalues --  -19.63900 -10.58023 -10.57249 -10.53012 -10.52189
  Beta  occ. eigenvalues --   -1.17117  -0.86823  -0.80084  -0.77132  -0.62967
  Beta  occ. eigenvalues --   -0.54497  -0.54281  -0.53592  -0.47882  -0.46196
  Beta  occ. eigenvalues --   -0.45093  -0.44346  -0.42583  -0.39126  -0.36124
  Beta virt. eigenvalues --   -0.00666   0.02347   0.03059   0.03741   0.03984
  Beta virt. eigenvalues --    0.05609   0.06287   0.07098   0.07883   0.08004
  Beta virt. eigenvalues --    0.09533   0.11556   0.12210   0.12721   0.13144

 Mulliken charges and spin densities:
               1          2
     1  O   -0.110871   0.054807
     2  C   -0.394207  -0.060498
     3  C   -0.479461  -0.022467
     4  C   -0.280708   0.018029
     5  C   -0.010210   0.869483
     6  H    0.140867   0.004142
     7  H    0.143948   0.013243
     8  H    0.157615   0.050605
     9  H    0.137480   0.007000
    10  H    0.140142   0.047596
    11  H    0.147974   0.011236
    12  H    0.135803   0.006331
    13  H    0.135735  -0.000717
    14  H    0.135893   0.001210
 Sum of Mulliken charges =  -0.00000   1.00000

 Dipole moment (field-independent basis, Debye):
    X=             -0.4683    Y=              1.1143    Z=              0.0138  Tot=              1.2088
 Quadrupole moment (field-independent basis, Debye-Ang):
   XX=            -29.1374   YY=            -33.4936   ZZ=            -33.9445
   XY=             -0.2092   XZ=              0.1933   YZ=              0.3083

 Normal termination of Gaussian 16 at Fri Mar 29 16:12:58 2019.
