 Gaussian 16, Revision A.03,
 Gaussian 16:  EM64L-G16RevA.03 25-Dec-2016

 ----------------------------------------------
 #p m062x/6-311+g(2df,2p) Opt=(CalcFC,ModRedun)
 ----------------------------------------------

 ----------------------------------------
 Gaussian Input Prepared from Scan Object
 ----------------------------------------
 Symbolic Z-matrix:
 Charge =  0 Multiplicity = 2

 SCF Done:  E(UM062X) =  -232.967421088     A.U. after   14 cycles

  Exact polarizability:   0.000   0.000   0.000   0.000   0.000   0.000
 Approx polarizability:  64.496   0.140  61.027   0.337  -0.221  58.872

 Optimization completed.
    -- Stationary point found.
 SCF Done:  E(UM062X) =  -232.966835573     A.U. after   12 cycles
 SCF Done:  E(UM062X) =  -232.967094829     A.U. after   11 cycles
 SCF Done:  E(UM062X) =  -232.967095471     A.U. after    8 cycles
 Optimization completed.
 SCF Done:  E(UM062X) =  -232.965995347     A.U. after   12 cycles
 SCF Done:  E(UM062X) =  -232.966272204     A.U. after   11 cycles
 SCF Done:  E(UM062X) =  -232.966272910     A.U. after    8 cycles
 SCF Done:  E(UM062X) =  -232.964926430     A.U. after   12 cycles
 SCF Done:  E(UM062X) =  -232.965213854     A.U. after   12 cycles
 SCF Done:  E(UM062X) =  -232.965214292     A.U. after    8 cycles
 SCF Done:  E(UM062X) =  -232.964790834     A.U. after    8 cycles
 SCF Done:  E(UM062X) =  -232.965715908     A.U. after   12 cycles
 SCF Done:  E(UM062X) =  -232.966074687     A.U. after   12 cycles
 SCF Done:  E(UM062X) =  -232.966076291     A.U. after    8 cycles
 SCF Done:  E(UM062X) =  -232.966787283     A.U. after   12 cycles
 SCF Done:  E(UM062X) =  -232.967067797     A.U. after   12 cycles
 SCF Done:  E(UM062X) =  -232.967068109     A.U. after    8 cycles
    -- Stationary point found.
 SCF Done:  E(UM062X) =  -232.967167429     A.U. after   12 cycles
 SCF Done:  E(UM062X) =  -232.967420870     A.U. after   11 cycles
 SCF Done:  E(UM062X) =  -232.967421081     A.U. after    8 cycles
 Optimization completed.
    -- Stationary point found.

                         Standard orientation:
 ---------------------------------------------------------------------
 Center     Atomic      Atomic             Coordinates (Angstroms)
 Number     Number       Type             X           Y           Z
 ---------------------------------------------------------------------
      1          8           0       -0.622324   -0.747656    0.157550
      2          6           0        0.418309    1.477915    0.042686
      3          6           0        1.729760   -0.739731   -0.013131
      4          6           0       -1.897752   -0.185989   -0.055116
      5          6           0        0.457714    0.006251   -0.208937
      6          1           0        1.336644    1.933409   -0.322395
      7          1           0       -0.418519    1.970584   -0.452265
      8          1           0        0.342079    1.699482    1.117367
      9          1           0        2.552528   -0.237403   -0.519288
     10          1           0        1.989721   -0.817189    1.051476
     11          1           0        1.641063   -1.752772   -0.402981
     12          1           0       -2.008910    0.142640   -1.091668
     13          1           0       -2.622484   -0.967567    0.155184
     14          1           0       -2.081712    0.659382    0.611160
 ---------------------------------------------------------------------

 The electronic state is 2-A.
 Alpha  occ. eigenvalues --  -19.64192 -10.58023 -10.58009 -10.52988 -10.52150
 Alpha  occ. eigenvalues --   -1.18204  -0.88255  -0.80442  -0.77376  -0.64310
 Alpha  occ. eigenvalues --   -0.55749  -0.55484  -0.54862  -0.49274  -0.46501
 Alpha  occ. eigenvalues --   -0.45893  -0.44555  -0.43013  -0.40525  -0.37534
 Alpha  occ. eigenvalues --   -0.21190
 Alpha virt. eigenvalues --    0.01707   0.02956   0.03631   0.04651   0.05490
 Alpha virt. eigenvalues --    0.06390   0.07331   0.08025   0.08189   0.09638
 Alpha virt. eigenvalues --    0.12054   0.13199   0.13608   0.14296   0.15494

  Beta  occ. eigenvalues --  -19.63900 -10.58024 -10.57251 -10.53012 -10.52189
  Beta  occ. eigenvalues --   -1.17115  -0.86823  -0.80083  -0.77132  -0.62967
  Beta  occ. eigenvalues --   -0.54496  -0.54279  -0.53592  -0.47881  -0.46199
  Beta  occ. eigenvalues --   -0.45093  -0.44346  -0.42582  -0.39125  -0.36122
  Beta virt. eigenvalues --   -0.00667   0.02347   0.03059   0.03741   0.03984
  Beta virt. eigenvalues --    0.05609   0.06288   0.07098   0.07883   0.08004
  Beta virt. eigenvalues --    0.09533   0.11554   0.12209   0.12720   0.13145

 Mulliken charges and spin densities:
               1          2
     1  O   -0.110796   0.054803
     2  C   -0.394125  -0.060472
     3  C   -0.479411  -0.022452
     4  C   -0.280725   0.018033
     5  C   -0.010427   0.869483
     6  H    0.140884   0.004135
     7  H    0.143935   0.013232
     8  H    0.157615   0.050587
     9  H    0.137460   0.006979
    10  H    0.140178   0.047584
    11  H    0.147995   0.011258
    12  H    0.135790   0.006331
    13  H    0.135731  -0.000715
    14  H    0.135898   0.001212
 Sum of Mulliken charges =  -0.00000   1.00000

 Dipole moment (field-independent basis, Debye):
    X=             -0.4681    Y=              1.1141    Z=              0.0141  Tot=              1.2085
 Quadrupole moment (field-independent basis, Debye-Ang):
   XX=            -29.1360   YY=            -33.4931   ZZ=            -33.9451
   XY=             -0.2090   XZ=              0.1940   YZ=              0.3085

 Normal termination of Gaussian 16 at Wed Apr 24 00:12:04 2019.
