 Gaussian 16, Revision A.03,
 Gaussian 16:  EM64L-G16RevA.03 25-Dec-2016

 ----------------------------------------------
 #p m062x/6-311+g(2df,2p) Opt=(CalcFC,ModRedun)
 ----------------------------------------------

 ----------------------------------------
 Gaussian Input Prepared from Scan Object
 ----------------------------------------
 Symbolic Z-matrix:
 Charge =  0 Multiplicity = 2

 SCF Done:  E(UM062X) =  -232.967421088     A.U. after   14 cycles

  Exact polarizability:   0.000   0.000   0.000   0.000   0.000   0.000
 Approx polarizability:  64.496   0.140  61.027   0.337  -0.221  58.872

 Optimization completed.
    -- Stationary point found.
 SCF Done:  E(UM062X) =  -232.966120229     A.U. after   12 cycles
 SCF Done:  E(UM062X) =  -232.967255380     A.U. after   12 cycles
 SCF Done:  E(UM062X) =  -232.967267110     A.U. after    9 cycles
 Optimization completed.
 SCF Done:  E(UM062X) =  -232.965640890     A.U. after   12 cycles
 SCF Done:  E(UM062X) =  -232.966803660     A.U. after   12 cycles
 SCF Done:  E(UM062X) =  -232.966819578     A.U. after   10 cycles
 SCF Done:  E(UM062X) =  -232.966819663     A.U. after    8 cycles
 SCF Done:  E(UM062X) =  -232.964928636     A.U. after   12 cycles
 SCF Done:  E(UM062X) =  -232.966143339     A.U. after   12 cycles
 SCF Done:  E(UM062X) =  -232.966880107     A.U. after   11 cycles
 SCF Done:  E(UM062X) =  -232.966887159     A.U. after    9 cycles
 SCF Done:  E(UM062X) =  -232.966887190     A.U. after    7 cycles
 SCF Done:  E(UM062X) =  -232.966148017     A.U. after   11 cycles
 SCF Done:  E(UM062X) =  -232.967270463     A.U. after   11 cycles
 SCF Done:  E(UM062X) =  -232.967276490     A.U. after    9 cycles
    -- Stationary point found.
 SCF Done:  E(UM062X) =  -232.966289633     A.U. after   12 cycles
 SCF Done:  E(UM062X) =  -232.967412907     A.U. after   11 cycles
 SCF Done:  E(UM062X) =  -232.967421044     A.U. after    9 cycles
 SCF Done:  E(UM062X) =  -232.967421087     A.U. after    7 cycles
 Optimization completed.
    -- Stationary point found.

                         Standard orientation:
 ---------------------------------------------------------------------
 Center     Atomic      Atomic             Coordinates (Angstroms)
 Number     Number       Type             X           Y           Z
 ---------------------------------------------------------------------
      1          8           0       -0.622407   -0.747655    0.157472
      2          6           0        0.418467    1.477891    0.042670
      3          6           0        1.729719   -0.739809   -0.013120
      4          6           0       -1.897808   -0.185880   -0.055064
      5          6           0        0.457692    0.006219   -0.208899
      6          1           0        1.336726    1.933268   -0.322757
      7          1           0       -0.418473    1.970587   -0.452060
      8          1           0        0.342640    1.699577    1.117354
      9          1           0        2.552492   -0.237533   -0.519324
     10          1           0        1.989741   -0.817136    1.051483
     11          1           0        1.640971   -1.752884   -0.402846
     12          1           0       -2.009013    0.142865   -1.091564
     13          1           0       -2.622577   -0.967462    0.155090
     14          1           0       -2.081677    0.659426    0.611323
 ---------------------------------------------------------------------

 The electronic state is 2-A.
 Alpha  occ. eigenvalues --  -19.64193 -10.58023 -10.58008 -10.52988 -10.52150
 Alpha  occ. eigenvalues --   -1.18204  -0.88255  -0.80442  -0.77376  -0.64310
 Alpha  occ. eigenvalues --   -0.55749  -0.55484  -0.54862  -0.49274  -0.46501
 Alpha  occ. eigenvalues --   -0.45893  -0.44555  -0.43013  -0.40525  -0.37535
 Alpha  occ. eigenvalues --   -0.21189
 Alpha virt. eigenvalues --    0.01707   0.02956   0.03631   0.04651   0.05490
 Alpha virt. eigenvalues --    0.06390   0.07331   0.08025   0.08189   0.09638
 Alpha virt. eigenvalues --    0.12054   0.13199   0.13608   0.14296   0.15494

  Beta  occ. eigenvalues --  -19.63900 -10.58024 -10.57251 -10.53012 -10.52189
  Beta  occ. eigenvalues --   -1.17115  -0.86823  -0.80083  -0.77132  -0.62967
  Beta  occ. eigenvalues --   -0.54496  -0.54280  -0.53591  -0.47882  -0.46199
  Beta  occ. eigenvalues --   -0.45093  -0.44346  -0.42582  -0.39125  -0.36123
  Beta virt. eigenvalues --   -0.00667   0.02347   0.03059   0.03741   0.03984
  Beta virt. eigenvalues --    0.05609   0.06288   0.07098   0.07883   0.08004
  Beta virt. eigenvalues --    0.09533   0.11554   0.12210   0.12720   0.13145

 Mulliken charges and spin densities:
               1          2
     1  O   -0.110798   0.054806
     2  C   -0.394047  -0.060488
     3  C   -0.479415  -0.022454
     4  C   -0.280743   0.018026
     5  C   -0.010461   0.869493
     6  H    0.140890   0.004141
     7  H    0.143919   0.013225
     8  H    0.157603   0.050597
     9  H    0.137462   0.006984
    10  H    0.140176   0.047583
    11  H    0.147990   0.011255
    12  H    0.135789   0.006332
    13  H    0.135730  -0.000715
    14  H    0.135905   0.001215
 Sum of Mulliken charges =  -0.00000   1.00000

 Dipole moment (field-independent basis, Debye):
    X=             -0.4681    Y=              1.1142    Z=              0.0142  Tot=              1.2086
 Quadrupole moment (field-independent basis, Debye-Ang):
   XX=            -29.1358   YY=            -33.4931   ZZ=            -33.9451
   XY=             -0.2091   XZ=              0.1940   YZ=              0.3085

 Normal termination of Gaussian 16 at Tue Mar 12 02:09:22 2019.
