 Gaussian 16, Revision A.03,
 Gaussian 16:  EM64L-G16RevA.03 25-Dec-2016

 ----------------------------------------------
 #p m062x/6-311+g(2df,2p) Opt=(CalcFC,ModRedun)
 ----------------------------------------------

 ----------------------------------------
 Gaussian Input Prepared from Scan Object
 ----------------------------------------
 Symbolic Z-matrix:
 Charge =  0 Multiplicity = 2

 SCF Done:  E(UM062X) =  -232.967421088     A.U. after   14 cycles

  Exact polarizability:   0.000   0.000   0.000   0.000   0.000   0.000
 Approx polarizability:  64.496   0.140  61.027   0.337  -0.221  58.872

 Optimization completed.
    -- Stationary point found.
 SCF Done:  E(UM062X) =  -232.966160785     A.U. after   12 cycles
 SCF Done:  E(UM062X) =  -232.967266274     A.U. after   11 cycles
 SCF Done:  E(UM062X) =  -232.967276474     A.U. after    9 cycles
 Optimization completed.
 SCF Done:  E(UM062X) =  -232.965775522     A.U. after   12 cycles
 SCF Done:  E(UM062X) =  -232.966874961     A.U. after   11 cycles
 SCF Done:  E(UM062X) =  -232.966887165     A.U. after   10 cycles
 SCF Done:  E(UM062X) =  -232.965224898     A.U. after   12 cycles
 SCF Done:  E(UM062X) =  -232.966324032     A.U. after   12 cycles
 SCF Done:  E(UM062X) =  -232.966337758     A.U. after   10 cycles
 SCF Done:  E(UM062X) =  -232.965612119     A.U. after   12 cycles
 SCF Done:  E(UM062X) =  -232.966803982     A.U. after   12 cycles
 SCF Done:  E(UM062X) =  -232.966819565     A.U. after   10 cycles
 SCF Done:  E(UM062X) =  -232.966113958     A.U. after   12 cycles
 SCF Done:  E(UM062X) =  -232.967256305     A.U. after   12 cycles
 SCF Done:  E(UM062X) =  -232.967267081     A.U. after    9 cycles
 SCF Done:  E(UM062X) =  -232.967267145     A.U. after    7 cycles
    -- Stationary point found.
 SCF Done:  E(UM062X) =  -232.966292768     A.U. after   12 cycles
 SCF Done:  E(UM062X) =  -232.967412243     A.U. after   11 cycles
 SCF Done:  E(UM062X) =  -232.967421063     A.U. after    9 cycles
 Optimization completed.
    -- Stationary point found.

                         Standard orientation:
 ---------------------------------------------------------------------
 Center     Atomic      Atomic             Coordinates (Angstroms)
 Number     Number       Type             X           Y           Z
 ---------------------------------------------------------------------
      1          8           0       -0.622328   -0.747734    0.157414
      2          6           0        0.418177    1.477914    0.042656
      3          6           0        1.729865   -0.739633   -0.013124
      4          6           0       -1.897766   -0.186013   -0.055041
      5          6           0        0.457773    0.006221   -0.208802
      6          1           0        1.336477    1.933502   -0.322409
      7          1           0       -0.418682    1.970414   -0.452414
      8          1           0        0.341874    1.699572    1.117299
      9          1           0        2.552435   -0.237189   -0.519470
     10          1           0        1.990387   -0.817022    1.051412
     11          1           0        1.641028   -1.752712   -0.402841
     12          1           0       -2.009045    0.142766   -1.091522
     13          1           0       -2.622480   -0.967648    0.155108
     14          1           0       -2.081658    0.659251    0.611391
 ---------------------------------------------------------------------

 The electronic state is 2-A.
 Alpha  occ. eigenvalues --  -19.64193 -10.58023 -10.58008 -10.52988 -10.52151
 Alpha  occ. eigenvalues --   -1.18204  -0.88255  -0.80442  -0.77376  -0.64310
 Alpha  occ. eigenvalues --   -0.55749  -0.55484  -0.54862  -0.49274  -0.46500
 Alpha  occ. eigenvalues --   -0.45893  -0.44556  -0.43014  -0.40523  -0.37536
 Alpha  occ. eigenvalues --   -0.21187
 Alpha virt. eigenvalues --    0.01706   0.02956   0.03631   0.04651   0.05490
 Alpha virt. eigenvalues --    0.06389   0.07331   0.08025   0.08189   0.09638
 Alpha virt. eigenvalues --    0.12054   0.13199   0.13608   0.14296   0.15495

  Beta  occ. eigenvalues --  -19.63900 -10.58024 -10.57251 -10.53012 -10.52189
  Beta  occ. eigenvalues --   -1.17114  -0.86823  -0.80083  -0.77133  -0.62967
  Beta  occ. eigenvalues --   -0.54496  -0.54280  -0.53591  -0.47881  -0.46199
  Beta  occ. eigenvalues --   -0.45093  -0.44347  -0.42583  -0.39123  -0.36124
  Beta virt. eigenvalues --   -0.00665   0.02347   0.03059   0.03741   0.03984
  Beta virt. eigenvalues --    0.05609   0.06287   0.07098   0.07883   0.08004
  Beta virt. eigenvalues --    0.09533   0.11555   0.12210   0.12720   0.13145

 Mulliken charges and spin densities:
               1          2
     1  O   -0.110843   0.054815
     2  C   -0.394195  -0.060461
     3  C   -0.479368  -0.022541
     4  C   -0.280731   0.018018
     5  C   -0.010303   0.869507
     6  H    0.140879   0.004138
     7  H    0.143933   0.013235
     8  H    0.157616   0.050587
     9  H    0.137466   0.006990
    10  H    0.140132   0.047616
    11  H    0.147980   0.011257
    12  H    0.135791   0.006339
    13  H    0.135733  -0.000715
    14  H    0.135909   0.001216
 Sum of Mulliken charges =  -0.00000   1.00000

 Dipole moment (field-independent basis, Debye):
    X=             -0.4683    Y=              1.1142    Z=              0.0142  Tot=              1.2087
 Quadrupole moment (field-independent basis, Debye-Ang):
   XX=            -29.1356   YY=            -33.4934   ZZ=            -33.9450
   XY=             -0.2087   XZ=              0.1943   YZ=              0.3082

 Normal termination of Gaussian 16 at Mon Mar 11 21:20:20 2019.
