 Gaussian 16, Revision A.03,
 Gaussian 16:  EM64L-G16RevA.03 25-Dec-2016

 ----------------------------------------------
 #p m062x/6-311+g(2df,2p) Opt=(CalcFC,ModRedun)
 ----------------------------------------------

 ----------------------------------------
 Gaussian Input Prepared from Scan Object
 ----------------------------------------
 Symbolic Z-matrix:
 Charge =  0 Multiplicity = 2

 SCF Done:  E(UM062X) =  -232.967421088     A.U. after   14 cycles

  Exact polarizability:   0.000   0.000   0.000   0.000   0.000   0.000
 Approx polarizability:  64.496   0.140  61.027   0.337  -0.221  58.872

 Optimization completed.
    -- Stationary point found.
 SCF Done:  E(UM062X) =  -232.966074934     A.U. after   12 cycles
 SCF Done:  E(UM062X) =  -232.967267888     A.U. after   11 cycles
 SCF Done:  E(UM062X) =  -232.967276901     A.U. after   10 cycles
 Optimization completed.
 SCF Done:  E(UM062X) =  -232.965668596     A.U. after   12 cycles
 SCF Done:  E(UM062X) =  -232.966866555     A.U. after   12 cycles
 SCF Done:  E(UM062X) =  -232.966878312     A.U. after   10 cycles
 SCF Done:  E(UM062X) =  -232.965061353     A.U. after   11 cycles
 SCF Done:  E(UM062X) =  -232.966282896     A.U. after   12 cycles
 SCF Done:  E(UM062X) =  -232.966298447     A.U. after   10 cycles
 SCF Done:  E(UM062X) =  -232.966182122     A.U. after   10 cycles
 SCF Done:  E(UM062X) =  -232.965498527     A.U. after   12 cycles
 SCF Done:  E(UM062X) =  -232.966824803     A.U. after   11 cycles
 SCF Done:  E(UM062X) =  -232.966834599     A.U. after   10 cycles
 SCF Done:  E(UM062X) =  -232.966008913     A.U. after   12 cycles
 SCF Done:  E(UM062X) =  -232.967263715     A.U. after   11 cycles
 SCF Done:  E(UM062X) =  -232.967271317     A.U. after    9 cycles
    -- Stationary point found.
 SCF Done:  E(UM062X) =  -232.966202429     A.U. after   12 cycles
 SCF Done:  E(UM062X) =  -232.967416293     A.U. after   11 cycles
 SCF Done:  E(UM062X) =  -232.967421054     A.U. after    9 cycles
 Optimization completed.
    -- Stationary point found.

                         Standard orientation:
 ---------------------------------------------------------------------
 Center     Atomic      Atomic             Coordinates (Angstroms)
 Number     Number       Type             X           Y           Z
 ---------------------------------------------------------------------
      1          8           0       -0.622476   -0.747705    0.157489
      2          6           0        0.418427    1.477849    0.042664
      3          6           0        1.729833   -0.739718   -0.013152
      4          6           0       -1.897834   -0.185860   -0.055094
      5          6           0        0.457704    0.006142   -0.208702
      6          1           0        1.336673    1.933243   -0.322770
      7          1           0       -0.418538    1.970425   -0.452143
      8          1           0        0.342528    1.699694    1.117307
      9          1           0        2.552132   -0.237170   -0.519796
     10          1           0        1.990505   -0.817174    1.051329
     11          1           0        1.641056   -1.752801   -0.402846
     12          1           0       -2.008965    0.142961   -1.091579
     13          1           0       -2.622654   -0.967427    0.154946
     14          1           0       -2.081713    0.659408    0.611339
 ---------------------------------------------------------------------

 The electronic state is 2-A.
 Alpha  occ. eigenvalues --  -19.64193 -10.58023 -10.58008 -10.52988 -10.52150
 Alpha  occ. eigenvalues --   -1.18204  -0.88256  -0.80442  -0.77377  -0.64310
 Alpha  occ. eigenvalues --   -0.55749  -0.55485  -0.54862  -0.49274  -0.46502
 Alpha  occ. eigenvalues --   -0.45892  -0.44556  -0.43014  -0.40524  -0.37536
 Alpha  occ. eigenvalues --   -0.21187
 Alpha virt. eigenvalues --    0.01706   0.02956   0.03631   0.04651   0.05490
 Alpha virt. eigenvalues --    0.06389   0.07331   0.08025   0.08189   0.09638
 Alpha virt. eigenvalues --    0.12054   0.13199   0.13607   0.14296   0.15495

  Beta  occ. eigenvalues --  -19.63900 -10.58024 -10.57250 -10.53012 -10.52189
  Beta  occ. eigenvalues --   -1.17114  -0.86823  -0.80082  -0.77133  -0.62967
  Beta  occ. eigenvalues --   -0.54496  -0.54280  -0.53591  -0.47881  -0.46200
  Beta  occ. eigenvalues --   -0.45092  -0.44347  -0.42583  -0.39123  -0.36124
  Beta virt. eigenvalues --   -0.00665   0.02347   0.03059   0.03741   0.03984
  Beta virt. eigenvalues --    0.05609   0.06287   0.07098   0.07883   0.08004
  Beta virt. eigenvalues --    0.09533   0.11555   0.12210   0.12721   0.13145

 Mulliken charges and spin densities:
               1          2
     1  O   -0.110854   0.054806
     2  C   -0.394072  -0.060486
     3  C   -0.479387  -0.022560
     4  C   -0.280738   0.018014
     5  C   -0.010352   0.869557
     6  H    0.140881   0.004143
     7  H    0.143911   0.013230
     8  H    0.157604   0.050598
     9  H    0.137455   0.006992
    10  H    0.140139   0.047610
    11  H    0.147979   0.011258
    12  H    0.135788   0.006337
    13  H    0.135732  -0.000715
    14  H    0.135914   0.001217
 Sum of Mulliken charges =  -0.00000   1.00000

 Dipole moment (field-independent basis, Debye):
    X=             -0.4682    Y=              1.1142    Z=              0.0139  Tot=              1.2087
 Quadrupole moment (field-independent basis, Debye-Ang):
   XX=            -29.1360   YY=            -33.4934   ZZ=            -33.9446
   XY=             -0.2092   XZ=              0.1942   YZ=              0.3081

 Normal termination of Gaussian 16 at Wed Apr 24 00:26:49 2019.
