 Gaussian 16, Revision A.03,
 Gaussian 16:  EM64L-G16RevA.03 25-Dec-2016

 ----------------------------------------------
 #p m062x/6-311+g(2df,2p) Opt=(CalcFC,ModRedun)
 ----------------------------------------------

 ----------------------------------------
 Gaussian Input Prepared from Scan Object
 ----------------------------------------
 Symbolic Z-matrix:
 Charge =  0 Multiplicity = 2

 SCF Done:  E(UM062X) =  -232.967421088     A.U. after   14 cycles

  Exact polarizability:   0.000   0.000   0.000   0.000   0.000   0.000
 Approx polarizability:  64.496   0.140  61.027   0.337  -0.221  58.872

 Optimization completed.
    -- Stationary point found.
 SCF Done:  E(UM062X) =  -232.956195419     A.U. after   13 cycles
 SCF Done:  E(UM062X) =  -232.965002540     A.U. after   13 cycles
 SCF Done:  E(UM062X) =  -232.965523930     A.U. after   11 cycles
 SCF Done:  E(UM062X) =  -232.965531128     A.U. after    9 cycles
 SCF Done:  E(UM062X) =  -232.965531385     A.U. after    8 cycles
 SCF Done:  E(UM062X) =  -232.965531441     A.U. after    8 cycles
 Optimization completed.
 SCF Done:  E(UM062X) =  -232.953276834     A.U. after   13 cycles
 SCF Done:  E(UM062X) =  -232.962847335     A.U. after   12 cycles
 SCF Done:  E(UM062X) =  -232.963467656     A.U. after   12 cycles
 SCF Done:  E(UM062X) =  -232.965577963     A.U. after   12 cycles
 SCF Done:  E(UM062X) =  -232.965618702     A.U. after   11 cycles
 SCF Done:  E(UM062X) =  -232.965629987     A.U. after   11 cycles
 SCF Done:  E(UM062X) =  -232.965630067     A.U. after    7 cycles
    -- Stationary point found.
 SCF Done:  E(UM062X) =  -232.957877871     A.U. after   13 cycles
 SCF Done:  E(UM062X) =  -232.966879983     A.U. after   12 cycles
 SCF Done:  E(UM062X) =  -232.967368972     A.U. after   12 cycles
 SCF Done:  E(UM062X) =  -232.967416085     A.U. after   11 cycles
 SCF Done:  E(UM062X) =  -232.967420564     A.U. after   10 cycles
 SCF Done:  E(UM062X) =  -232.967421085     A.U. after    8 cycles
 Optimization completed.
    -- Stationary point found.

                         Standard orientation:
 ---------------------------------------------------------------------
 Center     Atomic      Atomic             Coordinates (Angstroms)
 Number     Number       Type             X           Y           Z
 ---------------------------------------------------------------------
      1          8           0       -0.622411   -0.747563    0.157633
      2          6           0        0.418577    1.477928    0.042683
      3          6           0        1.729635   -0.739920   -0.013173
      4          6           0       -1.897822   -0.185880   -0.055143
      5          6           0        0.457676    0.006236   -0.208886
      6          1           0        1.336943    1.933196   -0.322608
      7          1           0       -0.418228    1.970761   -0.452148
      8          1           0        0.342612    1.699578    1.117362
      9          1           0        2.552441   -0.237669   -0.519348
     10          1           0        1.989645   -0.817420    1.051421
     11          1           0        1.640790   -1.752941   -0.403038
     12          1           0       -2.008975    0.142558   -1.091746
     13          1           0       -2.622628   -0.967378    0.155166
     14          1           0       -2.081715    0.659629    0.610987
 ---------------------------------------------------------------------

 The electronic state is 2-A.
 Alpha  occ. eigenvalues --  -19.64192 -10.58023 -10.58009 -10.52989 -10.52150
 Alpha  occ. eigenvalues --   -1.18204  -0.88255  -0.80442  -0.77376  -0.64310
 Alpha  occ. eigenvalues --   -0.55749  -0.55484  -0.54862  -0.49274  -0.46501
 Alpha  occ. eigenvalues --   -0.45893  -0.44555  -0.43013  -0.40525  -0.37534
 Alpha  occ. eigenvalues --   -0.21190
 Alpha virt. eigenvalues --    0.01707   0.02956   0.03631   0.04651   0.05490
 Alpha virt. eigenvalues --    0.06389   0.07331   0.08025   0.08189   0.09638
 Alpha virt. eigenvalues --    0.12054   0.13199   0.13608   0.14296   0.15495

  Beta  occ. eigenvalues --  -19.63900 -10.58024 -10.57251 -10.53012 -10.52189
  Beta  occ. eigenvalues --   -1.17115  -0.86823  -0.80082  -0.77132  -0.62967
  Beta  occ. eigenvalues --   -0.54496  -0.54280  -0.53591  -0.47882  -0.46199
  Beta  occ. eigenvalues --   -0.45093  -0.44346  -0.42582  -0.39125  -0.36122
  Beta virt. eigenvalues --   -0.00667   0.02347   0.03059   0.03741   0.03984
  Beta virt. eigenvalues --    0.05609   0.06287   0.07098   0.07883   0.08004
  Beta virt. eigenvalues --    0.09533   0.11554   0.12210   0.12720   0.13145

 Mulliken charges and spin densities:
               1          2
     1  O   -0.110787   0.054795
     2  C   -0.394083  -0.060494
     3  C   -0.479426  -0.022435
     4  C   -0.280732   0.018037
     5  C   -0.010443   0.869498
     6  H    0.140885   0.004137
     7  H    0.143926   0.013229
     8  H    0.157608   0.050589
     9  H    0.137455   0.006980
    10  H    0.140183   0.047583
    11  H    0.147995   0.011259
    12  H    0.135792   0.006325
    13  H    0.135733  -0.000716
    14  H    0.135894   0.001212
 Sum of Mulliken charges =  -0.00000   1.00000

 Dipole moment (field-independent basis, Debye):
    X=             -0.4681    Y=              1.1140    Z=              0.0138  Tot=              1.2085
 Quadrupole moment (field-independent basis, Debye-Ang):
   XX=            -29.1358   YY=            -33.4928   ZZ=            -33.9452
   XY=             -0.2090   XZ=              0.1943   YZ=              0.3088

 Normal termination of Gaussian 16 at Fri Mar 29 16:04:17 2019.
