 Gaussian 16, Revision A.03,
 Gaussian 16:  EM64L-G16RevA.03 25-Dec-2016

 ----------------------------------------------
 #p m062x/6-311+g(2df,2p) Opt=(CalcFC,ModRedun)
 ----------------------------------------------

 ----------------------------------------
 Gaussian Input Prepared from Scan Object
 ----------------------------------------
 Symbolic Z-matrix:
 Charge =  0 Multiplicity = 2

 SCF Done:  E(UM062X) =  -232.967421088     A.U. after   14 cycles

  Exact polarizability:   0.000   0.000   0.000   0.000   0.000   0.000
 Approx polarizability:  64.496   0.140  61.027   0.337  -0.221  58.872

 Optimization completed.
    -- Stationary point found.
 SCF Done:  E(UM062X) =  -232.956459540     A.U. after   13 cycles
 SCF Done:  E(UM062X) =  -232.965133566     A.U. after   12 cycles
 SCF Done:  E(UM062X) =  -232.966285883     A.U. after   12 cycles
 SCF Done:  E(UM062X) =  -232.966334228     A.U. after   11 cycles
 SCF Done:  E(UM062X) =  -232.966337757     A.U. after   10 cycles
 SCF Done:  E(UM062X) =  -232.966337882     A.U. after    8 cycles
 Optimization completed.
 SCF Done:  E(UM062X) =  -232.954668870     A.U. after   13 cycles
 SCF Done:  E(UM062X) =  -232.963275320     A.U. after   12 cycles
 SCF Done:  E(UM062X) =  -232.964644871     A.U. after   12 cycles
 SCF Done:  E(UM062X) =  -232.963649160     A.U. after   12 cycles
 SCF Done:  E(UM062X) =  -232.965982617     A.U. after   12 cycles
 SCF Done:  E(UM062X) =  -232.966120673     A.U. after   11 cycles
 SCF Done:  E(UM062X) =  -232.966160598     A.U. after   10 cycles
 SCF Done:  E(UM062X) =  -232.966162802     A.U. after    8 cycles
    -- Stationary point found.
 SCF Done:  E(UM062X) =  -232.957159954     A.U. after   13 cycles
 SCF Done:  E(UM062X) =  -232.965958677     A.U. after   12 cycles
 SCF Done:  E(UM062X) =  -232.967390460     A.U. after   12 cycles
 SCF Done:  E(UM062X) =  -232.967420632     A.U. after   11 cycles
 SCF Done:  E(UM062X) =  -232.967421080     A.U. after    8 cycles
 Optimization completed.
    -- Stationary point found.

                         Standard orientation:
 ---------------------------------------------------------------------
 Center     Atomic      Atomic             Coordinates (Angstroms)
 Number     Number       Type             X           Y           Z
 ---------------------------------------------------------------------
      1          8           0       -0.622424   -0.747618    0.157562
      2          6           0        0.418514    1.477919    0.042678
      3          6           0        1.729704   -0.739877   -0.013150
      4          6           0       -1.897819   -0.185892   -0.055119
      5          6           0        0.457684    0.006233   -0.208839
      6          1           0        1.336633    1.933317   -0.323068
      7          1           0       -0.418596    1.970555   -0.451820
      8          1           0        0.342993    1.699687    1.117370
      9          1           0        2.552292   -0.237511   -0.519496
     10          1           0        1.989826   -0.817199    1.051405
     11          1           0        1.641046   -1.752966   -0.402887
     12          1           0       -2.008975    0.142717   -1.091668
     13          1           0       -2.622590   -0.967455    0.155102
     14          1           0       -2.081734    0.659500    0.611147
 ---------------------------------------------------------------------

 The electronic state is 2-A.
 Alpha  occ. eigenvalues --  -19.64192 -10.58023 -10.58009 -10.52989 -10.52150
 Alpha  occ. eigenvalues --   -1.18204  -0.88255  -0.80442  -0.77376  -0.64310
 Alpha  occ. eigenvalues --   -0.55749  -0.55484  -0.54862  -0.49275  -0.46501
 Alpha  occ. eigenvalues --   -0.45893  -0.44555  -0.43014  -0.40525  -0.37534
 Alpha  occ. eigenvalues --   -0.21189
 Alpha virt. eigenvalues --    0.01707   0.02956   0.03631   0.04651   0.05490
 Alpha virt. eigenvalues --    0.06390   0.07331   0.08025   0.08189   0.09638
 Alpha virt. eigenvalues --    0.12054   0.13200   0.13607   0.14296   0.15494

  Beta  occ. eigenvalues --  -19.63900 -10.58024 -10.57251 -10.53012 -10.52188
  Beta  occ. eigenvalues --   -1.17114  -0.86823  -0.80082  -0.77132  -0.62967
  Beta  occ. eigenvalues --   -0.54496  -0.54280  -0.53591  -0.47882  -0.46199
  Beta  occ. eigenvalues --   -0.45093  -0.44346  -0.42583  -0.39125  -0.36122
  Beta virt. eigenvalues --   -0.00667   0.02347   0.03059   0.03741   0.03984
  Beta virt. eigenvalues --    0.05609   0.06287   0.07098   0.07883   0.08004
  Beta virt. eigenvalues --    0.09533   0.11555   0.12210   0.12720   0.13145

 Mulliken charges and spin densities:
               1          2
     1  O   -0.110789   0.054795
     2  C   -0.393967  -0.060507
     3  C   -0.479442  -0.022431
     4  C   -0.280754   0.018022
     5  C   -0.010497   0.869514
     6  H    0.140893   0.004145
     7  H    0.143907   0.013218
     8  H    0.157595   0.050602
     9  H    0.137458   0.006984
    10  H    0.140186   0.047575
    11  H    0.147989   0.011255
    12  H    0.135790   0.006329
    13  H    0.135730  -0.000716
    14  H    0.135902   0.001215
 Sum of Mulliken charges =  -0.00000   1.00000

 Dipole moment (field-independent basis, Debye):
    X=             -0.4680    Y=              1.1141    Z=              0.0139  Tot=              1.2085
 Quadrupole moment (field-independent basis, Debye-Ang):
   XX=            -29.1363   YY=            -33.4925   ZZ=            -33.9449
   XY=             -0.2093   XZ=              0.1940   YZ=              0.3085

 Normal termination of Gaussian 16 at Fri Mar 29 17:24:02 2019.
