 Gaussian 16, Revision A.03,
 Gaussian 16:  EM64L-G16RevA.03 25-Dec-2016

 ----------------------------------------------
 #p m062x/6-311+g(2df,2p) Opt=(CalcFC,ModRedun)
 ----------------------------------------------

 ----------------------------------------
 Gaussian Input Prepared from Scan Object
 ----------------------------------------
 Symbolic Z-matrix:
 Charge =  0 Multiplicity = 2

 SCF Done:  E(UM062X) =  -232.967421088     A.U. after   14 cycles

  Exact polarizability:   0.000   0.000   0.000   0.000   0.000   0.000
 Approx polarizability:  64.496   0.140  61.027   0.337  -0.221  58.872

 Optimization completed.
    -- Stationary point found.
 SCF Done:  E(UM062X) =  -232.966098548     A.U. after   12 cycles
 SCF Done:  E(UM062X) =  -232.967198852     A.U. after   12 cycles
 SCF Done:  E(UM062X) =  -232.967208382     A.U. after   10 cycles
 Optimization completed.
 SCF Done:  E(UM062X) =  -232.965472297     A.U. after   12 cycles
 SCF Done:  E(UM062X) =  -232.966605556     A.U. after   12 cycles
 SCF Done:  E(UM062X) =  -232.966618883     A.U. after   10 cycles
 SCF Done:  E(UM062X) =  -232.964565759     A.U. after   12 cycles
 SCF Done:  E(UM062X) =  -232.965744367     A.U. after   12 cycles
 SCF Done:  E(UM062X) =  -232.965759736     A.U. after   10 cycles
 SCF Done:  E(UM062X) =  -232.965412174     A.U. after   12 cycles
 SCF Done:  E(UM062X) =  -232.966556363     A.U. after   12 cycles
 SCF Done:  E(UM062X) =  -232.966562161     A.U. after   10 cycles
 SCF Done:  E(UM062X) =  -232.966562651     A.U. after    9 cycles
 SCF Done:  E(UM062X) =  -232.966099102     A.U. after   12 cycles
 SCF Done:  E(UM062X) =  -232.967193398     A.U. after   12 cycles
 SCF Done:  E(UM062X) =  -232.967200769     A.U. after   10 cycles
    -- Stationary point found.
 SCF Done:  E(UM062X) =  -232.966333693     A.U. after   12 cycles
 SCF Done:  E(UM062X) =  -232.967411945     A.U. after   12 cycles
 SCF Done:  E(UM062X) =  -232.967421008     A.U. after   10 cycles
 Optimization completed.
    -- Stationary point found.

                         Standard orientation:
 ---------------------------------------------------------------------
 Center     Atomic      Atomic             Coordinates (Angstroms)
 Number     Number       Type             X           Y           Z
 ---------------------------------------------------------------------
      1          8           0       -0.622184   -0.747823    0.157302
      2          6           0        0.417773    1.478050    0.042576
      3          6           0        1.730099   -0.739479   -0.013120
      4          6           0       -1.897725   -0.186302   -0.055056
      5          6           0        0.457905    0.006397   -0.208497
      6          1           0        1.335847    1.933722   -0.322844
      7          1           0       -0.419528    1.970093   -0.452214
      8          1           0        0.341556    1.700061    1.117199
      9          1           0        2.552680   -0.237246   -0.519701
     10          1           0        1.990568   -0.816744    1.051368
     11          1           0        1.641260   -1.752582   -0.402776
     12          1           0       -2.009014    0.142984   -1.091365
     13          1           0       -2.622267   -0.968218    0.154645
     14          1           0       -2.081945    0.658520    0.611847
 ---------------------------------------------------------------------

 The electronic state is 2-A.
 Alpha  occ. eigenvalues --  -19.64192 -10.58023 -10.58006 -10.52989 -10.52152
 Alpha  occ. eigenvalues --   -1.18202  -0.88254  -0.80444  -0.77377  -0.64309
 Alpha  occ. eigenvalues --   -0.55749  -0.55485  -0.54862  -0.49273  -0.46500
 Alpha  occ. eigenvalues --   -0.45892  -0.44557  -0.43016  -0.40524  -0.37537
 Alpha  occ. eigenvalues --   -0.21181
 Alpha virt. eigenvalues --    0.01706   0.02956   0.03631   0.04651   0.05490
 Alpha virt. eigenvalues --    0.06389   0.07331   0.08024   0.08189   0.09638
 Alpha virt. eigenvalues --    0.12054   0.13199   0.13606   0.14298   0.15496

  Beta  occ. eigenvalues --  -19.63899 -10.58024 -10.57249 -10.53012 -10.52190
  Beta  occ. eigenvalues --   -1.17112  -0.86822  -0.80084  -0.77133  -0.62966
  Beta  occ. eigenvalues --   -0.54497  -0.54279  -0.53591  -0.47879  -0.46199
  Beta  occ. eigenvalues --   -0.45092  -0.44348  -0.42585  -0.39124  -0.36124
  Beta virt. eigenvalues --   -0.00661   0.02347   0.03059   0.03741   0.03984
  Beta virt. eigenvalues --    0.05609   0.06287   0.07098   0.07883   0.08004
  Beta virt. eigenvalues --    0.09533   0.11556   0.12211   0.12722   0.13143

 Mulliken charges and spin densities:
               1          2
     1  O   -0.110909   0.054800
     2  C   -0.394146  -0.060525
     3  C   -0.479484  -0.022511
     4  C   -0.280748   0.017973
     5  C   -0.010087   0.869523
     6  H    0.140880   0.004147
     7  H    0.143919   0.013247
     8  H    0.157567   0.050641
     9  H    0.137462   0.006994
    10  H    0.140123   0.047603
    11  H    0.147980   0.011253
    12  H    0.135788   0.006349
    13  H    0.135735  -0.000715
    14  H    0.135921   0.001220
 Sum of Mulliken charges =  -0.00000   1.00000

 Dipole moment (field-independent basis, Debye):
    X=             -0.4685    Y=              1.1140    Z=              0.0140  Tot=              1.2086
 Quadrupole moment (field-independent basis, Debye-Ang):
   XX=            -29.1349   YY=            -33.4937   ZZ=            -33.9445
   XY=             -0.2092   XZ=              0.1933   YZ=              0.3083

 Normal termination of Gaussian 16 at Wed Apr 24 00:28:50 2019.
