 Gaussian 16, Revision A.03,
 Gaussian 16:  EM64L-G16RevA.03 25-Dec-2016

 ----------------------------------------------
 #p m062x/6-311+g(2df,2p) Opt=(CalcFC,ModRedun)
 ----------------------------------------------

 ----------------------------------------
 Gaussian Input Prepared from Scan Object
 ----------------------------------------
 Symbolic Z-matrix:
 Charge =  0 Multiplicity = 2

 SCF Done:  E(UM062X) =  -232.967421088     A.U. after   14 cycles

  Exact polarizability:   0.000   0.000   0.000   0.000   0.000   0.000
 Approx polarizability:  64.496   0.140  61.027   0.337  -0.221  58.872

 Optimization completed.
    -- Stationary point found.
 SCF Done:  E(UM062X) =  -232.966257273     A.U. after   11 cycles
 SCF Done:  E(UM062X) =  -232.967129554     A.U. after   10 cycles
 SCF Done:  E(UM062X) =  -232.967132581     A.U. after    8 cycles
 Optimization completed.
 SCF Done:  E(UM062X) =  -232.965417016     A.U. after   11 cycles
 SCF Done:  E(UM062X) =  -232.966364217     A.U. after   11 cycles
 SCF Done:  E(UM062X) =  -232.966368549     A.U. after    8 cycles
 SCF Done:  E(UM062X) =  -232.964291762     A.U. after   11 cycles
 SCF Done:  E(UM062X) =  -232.965354839     A.U. after   11 cycles
 SCF Done:  E(UM062X) =  -232.965359769     A.U. after    9 cycles
 SCF Done:  E(UM062X) =  -232.965231558     A.U. after   10 cycles
 SCF Done:  E(UM062X) =  -232.965214163     A.U. after   11 cycles
 SCF Done:  E(UM062X) =  -232.966311822     A.U. after   12 cycles
 SCF Done:  E(UM062X) =  -232.966314105     A.U. after    9 cycles
 SCF Done:  E(UM062X) =  -232.966166889     A.U. after   11 cycles
 SCF Done:  E(UM062X) =  -232.967122739     A.U. after   11 cycles
 SCF Done:  E(UM062X) =  -232.967124594     A.U. after    9 cycles
    -- Stationary point found.
 SCF Done:  E(UM062X) =  -232.966546343     A.U. after   11 cycles
 SCF Done:  E(UM062X) =  -232.967417272     A.U. after   10 cycles
 SCF Done:  E(UM062X) =  -232.967420944     A.U. after    8 cycles
 Optimization completed.
    -- Stationary point found.

                         Standard orientation:
 ---------------------------------------------------------------------
 Center     Atomic      Atomic             Coordinates (Angstroms)
 Number     Number       Type             X           Y           Z
 ---------------------------------------------------------------------
      1          8           0       -0.622231   -0.748035    0.157270
      2          6           0        0.417744    1.478048    0.042610
      3          6           0        1.730052   -0.739432   -0.013148
      4          6           0       -1.897622   -0.186188   -0.055064
      5          6           0        0.457812    0.006338   -0.208280
      6          1           0        1.335567    1.933856   -0.323389
      7          1           0       -0.419782    1.969750   -0.452141
      8          1           0        0.342113    1.700397    1.117180
      9          1           0        2.552391   -0.237157   -0.520077
     10          1           0        1.990946   -0.816539    1.051264
     11          1           0        1.641148   -1.752581   -0.402659
     12          1           0       -2.008152    0.143495   -1.091443
     13          1           0       -2.622479   -0.967894    0.154274
     14          1           0       -2.081820    0.658352    0.612118
 ---------------------------------------------------------------------

 The electronic state is 2-A.
 Alpha  occ. eigenvalues --  -19.64193 -10.58024 -10.58005 -10.52989 -10.52151
 Alpha  occ. eigenvalues --   -1.18204  -0.88254  -0.80444  -0.77376  -0.64308
 Alpha  occ. eigenvalues --   -0.55750  -0.55486  -0.54863  -0.49274  -0.46499
 Alpha  occ. eigenvalues --   -0.45893  -0.44556  -0.43016  -0.40523  -0.37539
 Alpha  occ. eigenvalues --   -0.21179
 Alpha virt. eigenvalues --    0.01706   0.02956   0.03631   0.04650   0.05490
 Alpha virt. eigenvalues --    0.06389   0.07331   0.08024   0.08189   0.09638
 Alpha virt. eigenvalues --    0.12054   0.13199   0.13605   0.14297   0.15496

  Beta  occ. eigenvalues --  -19.63900 -10.58024 -10.57248 -10.53013 -10.52189
  Beta  occ. eigenvalues --   -1.17114  -0.86821  -0.80085  -0.77132  -0.62965
  Beta  occ. eigenvalues --   -0.54497  -0.54279  -0.53594  -0.47881  -0.46197
  Beta  occ. eigenvalues --   -0.45092  -0.44347  -0.42585  -0.39123  -0.36126
  Beta virt. eigenvalues --   -0.00660   0.02347   0.03059   0.03741   0.03984
  Beta virt. eigenvalues --    0.05608   0.06287   0.07098   0.07883   0.08004
  Beta virt. eigenvalues --    0.09533   0.11556   0.12211   0.12723   0.13142

 Mulliken charges and spin densities:
               1          2
     1  O   -0.110919   0.054790
     2  C   -0.393935  -0.060594
     3  C   -0.479626  -0.022506
     4  C   -0.280717   0.017944
     5  C   -0.010098   0.869596
     6  H    0.140891   0.004156
     7  H    0.143883   0.013232
     8  H    0.157549   0.050646
     9  H    0.137463   0.007005
    10  H    0.140102   0.047610
    11  H    0.147964   0.011250
    12  H    0.135741   0.006362
    13  H    0.135738  -0.000714
    14  H    0.135964   0.001223
 Sum of Mulliken charges =  -0.00000   1.00000

 Dipole moment (field-independent basis, Debye):
    X=             -0.4685    Y=              1.1145    Z=              0.0141  Tot=              1.2090
 Quadrupole moment (field-independent basis, Debye-Ang):
   XX=            -29.1364   YY=            -33.4947   ZZ=            -33.9434
   XY=             -0.2087   XZ=              0.1922   YZ=              0.3080

 Normal termination of Gaussian 16 at Tue Apr 23 23:25:45 2019.
