 Gaussian 16, Revision A.03,
 Gaussian 16:  EM64L-G16RevA.03 25-Dec-2016

 ----------------------------------------------------------------------
 #p m062x/6-311+g(2df,2p) opt=(calcfc,verytight,gdiis,maxcycles=900) fr
 eq iop(7/33=1,2/16=3)
 ----------------------------------------------------------------------

 ------------------------------
 Gaussian input prepared by ASE
 ------------------------------
 Symbolic Z-matrix:
 Charge =  0 Multiplicity = 1

 SCF Done:  E(RM062X) =  -194.302697105     A.U. after   10 cycles
 SCF Done:  E(RM062X) =  -194.311886620     A.U. after   10 cycles
 SCF Done:  E(RM062X) =  -194.314444366     A.U. after   11 cycles
 SCF Done:  E(RM062X) =  -194.315444818     A.U. after   11 cycles
 SCF Done:  E(RM062X) =  -194.315553273     A.U. after    9 cycles
 SCF Done:  E(RM062X) =  -194.315557127     A.U. after    8 cycles
 SCF Done:  E(RM062X) =  -194.315560288     A.U. after    7 cycles
 SCF Done:  E(RM062X) =  -194.315562480     A.U. after    7 cycles
 SCF Done:  E(RM062X) =  -194.315563969     A.U. after    7 cycles
 SCF Done:  E(RM062X) =  -194.315564010     A.U. after    6 cycles
 SCF Done:  E(RM062X) =  -194.315564022     A.U. after    5 cycles
 SCF Done:  E(RM062X) =  -194.315564022     A.U. after    2 cycles
 SCF Done:  E(RM062X) =  -194.315564022     A.U. after    2 cycles
 SCF Done:  E(RM062X) =  -194.315564022     A.U. after    2 cycles
 Optimization completed.
    -- Stationary point found.
 Normal termination of Gaussian 16 at Wed Mar  6 15:52:58 2019.

 ----------------------------------------------------------------------
 #P Geom=AllCheck Guess=TCheck SCRF=Check Test GenChk RM062X/6-311+G(2d
 f,2p) Freq
 ----------------------------------------------------------------------

 Structure from the checkpoint file:  "/scratch/underkoffler.c/gaussian_scratch/Gau-42984.chk"
 ------------------------------
 Gaussian input prepared by ASE
 ------------------------------
 Charge =  0 Multiplicity = 1

                         Standard orientation:
 ---------------------------------------------------------------------
 Center     Atomic      Atomic             Coordinates (Angstroms)
 Number     Number       Type             X           Y           Z
 ---------------------------------------------------------------------
      1          8           0        0.503188   -0.498519    0.000000
      2          6           0       -0.487822    0.500699    0.000000
      3          6           0       -1.844905   -0.165153   -0.000000
      4          6           0        1.800727    0.032909   -0.000000
      5          1           0       -0.368678    1.140349   -0.884353
      6          1           0       -0.368678    1.140349    0.884354
      7          1           0       -1.957009   -0.792001   -0.883179
      8          1           0       -2.636690    0.582905    0.000000
      9          1           0       -1.957009   -0.792001    0.883179
     10          1           0        1.977338    0.648762   -0.889036
     11          1           0        1.977338    0.648762    0.889036
     12          1           0        2.499892   -0.799708   -0.000000
 ---------------------------------------------------------------------

 SCF Done:  E(RM062X) =  -194.315564022     A.U. after    1 cycles

 The electronic state is 1-A.
 Alpha  occ. eigenvalues --  -19.62202 -10.57944 -10.57356 -10.52191  -1.16025
 Alpha  occ. eigenvalues --   -0.86131  -0.76608  -0.69404  -0.56380  -0.56068
 Alpha  occ. eigenvalues --   -0.52856  -0.48993  -0.44915  -0.42470  -0.41738
 Alpha  occ. eigenvalues --   -0.38932  -0.33087
 Alpha virt. eigenvalues --    0.01886   0.03050   0.04216   0.04357   0.05576
 Alpha virt. eigenvalues --    0.07100   0.07353   0.08626   0.09775   0.09970
 Alpha virt. eigenvalues --    0.13210   0.14348   0.18373   0.19233   0.19538

 Mulliken charges:
               1
     1  O   -0.166888
     2  C   -0.204781
     3  C   -0.406920
     4  C   -0.250460
     5  H    0.133485
     6  H    0.133485
     7  H    0.141362
     8  H    0.125859
     9  H    0.141362
    10  H    0.112711
    11  H    0.112711
    12  H    0.128074
 Sum of Mulliken charges =  -0.00000

 Dipole moment (field-independent basis, Debye):
    X=              0.1636    Y=              1.2405    Z=             -0.0000  Tot=              1.2512
 Quadrupole moment (field-independent basis, Debye-Ang):
   XX=            -24.0365   YY=            -27.7277   ZZ=            -26.7052
   XY=             -0.0181   XZ=             -0.0000   YZ=              0.0000

  Exact polarizability:  51.037   0.225  40.439   0.000   0.000  38.934
 Approx polarizability:  49.455  -0.265  47.914  -0.000   0.000  46.114

                      1                      2                      3
                      A                      A                      A
 Frequencies --    112.8557               212.4587               263.8579
 Red. masses --      2.1924                 1.1053                 1.2259
 Frc consts  --      0.0165                 0.0294                 0.0503
 IR Inten    --      2.3870                 1.7196                 2.1362

                      4                      5                      6
                      A                      A                      A
 Frequencies --    295.6841               476.7753               822.2706
 Red. masses --      2.4359                 2.8565                 1.0860
 Frc consts  --      0.1255                 0.3826                 0.4326
 IR Inten    --      2.9318                 0.6805                 0.2816

                      7                      8                      9
                      A                      A                      A
 Frequencies --    887.3795              1062.8619              1124.4116
 Red. masses --      1.9409                 2.9293                 1.7110
 Frc consts  --      0.9005                 1.9497                 1.2746
 IR Inten    --      8.7748                17.9427                 4.6601

                     10                     11                     12
                      A                      A                      A
 Frequencies --   1173.8905              1203.1806              1203.9946
 Red. masses --      1.3399                 1.4930                 3.7618
 Frc consts  --      1.0879                 1.2734                 3.2128
 IR Inten    --      0.0710                 9.2287               117.0411

                     13                     14                     15
                      A                      A                      A
 Frequencies --   1257.3540              1308.9879              1400.2825
 Red. masses --      2.2819                 1.0929                 1.2273
 Frc consts  --      2.1255                 1.1033                 1.4179
 IR Inten    --     74.9588                 2.3281                 0.8922

                     16                     17                     18
                      A                      A                      A
 Frequencies --   1434.2387              1485.9928              1490.5747
 Red. masses --      1.3976                 1.1787                 1.0390
 Frc consts  --      1.6938                 1.5335                 1.3601
 IR Inten    --     30.9567                 0.3011                 5.3836

                     19                     20                     21
                      A                      A                      A
 Frequencies --   1499.7706              1504.9653              1513.6876
 Red. masses --      1.0431                 1.0562                 1.0518
 Frc consts  --      1.3824                 1.4094                 1.4198
 IR Inten    --      8.9365                 5.3902                 5.0829

                     22                     23                     24
                      A                      A                      A
 Frequencies --   1536.1838              2993.8152              3012.4128
 Red. masses --      1.0924                 1.0540                 1.0376
 Frc consts  --      1.5188                 5.5660                 5.5479
 IR Inten    --      3.0647                36.6434                67.1867

                     25                     26                     27
                      A                      A                      A
 Frequencies --   3021.6192              3058.7321              3074.8391
 Red. masses --      1.1061                 1.1040                 1.0347
 Frc consts  --      5.9503                 6.0855                 5.7640
 IR Inten    --     50.6258                44.2419                13.6917

                     28                     29                     30
                      A                      A                      A
 Frequencies --   3149.8601              3149.9180              3152.0046
 Red. masses --      1.1022                 1.0971                 1.1036
 Frc consts  --      6.4433                 6.4135                 6.4602
 IR Inten    --     14.9093                24.8813                19.4963

 - Thermochemistry -
 -------------------
 Temperature   298.150 Kelvin.  Pressure   1.00000 Atm.
 Atom     1 has atomic number  8 and mass  15.99491

 Molecular mass:    60.05751 amu.
 Principal axes and moments of inertia in atomic units:
                           1         2         3
     Eigenvalues --    63.27735 430.62126 460.03236
           X            0.99993   0.01218  -0.00000
           Y           -0.01218   0.99993   0.00000
           Z            0.00000  -0.00000   1.00000
 This molecule is an asymmetric top.
 Rotational symmetry number  1.
 Rotational temperatures (Kelvin)      1.36880     0.20114     0.18828
 Rotational constants (GHZ):          28.52112     4.19102     3.92307
 Zero-point vibrational energy     286415.1 (Joules/Mol)
                                   68.45484 (Kcal/Mol)
 Warning -- explicit consideration of   5 degrees of freedom as
           vibrations may cause significant error
 Vibrational temperatures:    162.37   305.68   379.63   425.42   685.97
          (Kelvin)           1183.06  1276.74  1529.22  1617.78  1688.97
                             1731.11  1732.28  1809.05  1883.34  2014.69
                             2063.55  2138.01  2144.60  2157.84  2165.31
                             2177.86  2210.23  4307.43  4334.19  4347.44
                             4400.83  4424.01  4531.95  4532.03  4535.03

 Zero-point correction=                           0.109090 (Hartree/Particle)
 Thermal correction to Energy=                    0.114608
 Thermal correction to Enthalpy=                  0.115552
 Thermal correction to Gibbs Free Energy=         0.081327
 Sum of electronic and zero-point Energies=           -194.206474
 Sum of electronic and thermal Energies=              -194.200956
 Sum of electronic and thermal Enthalpies=            -194.200012
 Sum of electronic and thermal Free Energies=         -194.234237

                     E (Thermal)             CV                S
                      KCal/Mol        Cal/Mol-Kelvin    Cal/Mol-Kelvin
 Total                   71.917             17.735             72.033
 Electronic               0.000              0.000              0.000
 Translational            0.889              2.981             38.198
 Rotational               0.889              2.981             24.042
 Vibrational             70.140             11.773              9.793
 Vibration     1          0.607              1.939              3.219
 Vibration     2          0.643              1.822              2.022
 Vibration     3          0.670              1.739              1.636
 Vibration     4          0.690              1.682              1.441
 Vibration     5          0.833              1.302              0.719

 Optimization completed.
    -- Stationary point found.
 Normal termination of Gaussian 16 at Wed Mar  6 16:17:45 2019.
