 Gaussian 16, Revision A.03,
 Gaussian 16:  EM64L-G16RevA.03 25-Dec-2016

 ----------------------------------------------
 #p m062x/6-311+g(2df,2p) Opt=(CalcFC,ModRedun)
 ----------------------------------------------

 ----------------------------------------
 Gaussian Input Prepared from Scan Object
 ----------------------------------------
 Symbolic Z-matrix:
 Charge =  0 Multiplicity = 2

 SCF Done:  E(UM062X) =  -307.003496626     A.U. after   15 cycles

  Exact polarizability:   0.000   0.000   0.000   0.000   0.000   0.000
 Approx polarizability:  62.930   1.661  66.676  -0.260  -2.900  55.494

 Optimization completed.
    -- Stationary point found.
 SCF Done:  E(UM062X) =  -307.002422770     A.U. after   11 cycles
 SCF Done:  E(UM062X) =  -307.003336717     A.U. after   11 cycles
 SCF Done:  E(UM062X) =  -307.003339691     A.U. after    8 cycles
 Optimization completed.
 SCF Done:  E(UM062X) =  -307.001972764     A.U. after   11 cycles
 SCF Done:  E(UM062X) =  -307.002936134     A.U. after   11 cycles
 SCF Done:  E(UM062X) =  -307.002939312     A.U. after    8 cycles
 SCF Done:  E(UM062X) =  -307.001404645     A.U. after   11 cycles
 SCF Done:  E(UM062X) =  -307.002436117     A.U. after   11 cycles
 SCF Done:  E(UM062X) =  -307.002438105     A.U. after    8 cycles
 SCF Done:  E(UM062X) =  -307.001934682     A.U. after   11 cycles
 SCF Done:  E(UM062X) =  -307.002954250     A.U. after   10 cycles
 SCF Done:  E(UM062X) =  -307.002955550     A.U. after    8 cycles
 SCF Done:  E(UM062X) =  -307.002389105     A.U. after   11 cycles
 SCF Done:  E(UM062X) =  -307.003346240     A.U. after   10 cycles
 SCF Done:  E(UM062X) =  -307.003348066     A.U. after    9 cycles
 SCF Done:  E(UM062X) =  -307.003348101     A.U. after    8 cycles
    -- Stationary point found.
 SCF Done:  E(UM062X) =  -307.002580940     A.U. after   11 cycles
 SCF Done:  E(UM062X) =  -307.003494177     A.U. after   11 cycles
 SCF Done:  E(UM062X) =  -307.003496621     A.U. after    9 cycles
 Optimization completed.
    -- Stationary point found.

                         Standard orientation:
 ---------------------------------------------------------------------
 Center     Atomic      Atomic             Coordinates (Angstroms)
 Number     Number       Type             X           Y           Z
 ---------------------------------------------------------------------
      1          8           0        0.753965   -0.664997    0.283097
      2          8           0        0.409685    1.468686   -0.296045
      3          6           0       -1.441374    0.161294    0.547313
      4          6           0        2.110426   -0.527434   -0.134385
      5          6           0       -0.004487    0.429901    0.135157
      6          6           0       -2.119972   -0.685614   -0.473294
      7          1           0       -1.423943   -0.342213    1.514960
      8          1           0       -1.926429    1.128725    0.649676
      9          1           0        2.606370    0.250852    0.442153
     10          1           0        2.155557   -0.267444   -1.190067
     11          1           0        2.576592   -1.490652    0.042980
     12          1           0       -2.611568   -0.226795   -1.316334
     13          1           0       -1.953333   -1.750872   -0.488532
 ---------------------------------------------------------------------

 The electronic state is 2-A.
 Alpha  occ. eigenvalues --  -19.67283 -19.61598 -10.67383 -10.59161 -10.55767
 Alpha  occ. eigenvalues --  -10.55724  -1.24267  -1.14752  -0.90329  -0.82161
 Alpha  occ. eigenvalues --   -0.73008  -0.65531  -0.58952  -0.57592  -0.57260
 Alpha  occ. eigenvalues --   -0.53613  -0.49866  -0.49073  -0.44873  -0.43941
 Alpha  occ. eigenvalues --   -0.43689  -0.38259  -0.36974  -0.27443
 Alpha virt. eigenvalues --    0.01476   0.02792   0.03248   0.04172   0.04899
 Alpha virt. eigenvalues --    0.05781   0.06260   0.06578   0.08026   0.09151
 Alpha virt. eigenvalues --    0.09339   0.10766   0.11491   0.13009   0.13680

  Beta  occ. eigenvalues --  -19.67267 -19.61567 -10.67272 -10.59160 -10.55811
  Beta  occ. eigenvalues --  -10.55053  -1.24173  -1.14661  -0.89089  -0.81482
  Beta  occ. eigenvalues --   -0.70181  -0.65289  -0.58401  -0.57364  -0.56963
  Beta  occ. eigenvalues --   -0.52834  -0.49296  -0.48593  -0.44353  -0.43554
  Beta  occ. eigenvalues --   -0.43386  -0.38132  -0.35978
  Beta virt. eigenvalues --   -0.03996   0.01005   0.02448   0.03196   0.04098
  Beta virt. eigenvalues --    0.04739   0.05925   0.06184   0.07349   0.08012
  Beta virt. eigenvalues --    0.08934   0.09297   0.10560   0.12277   0.12488

 Mulliken charges and spin densities:
               1          2
     1  O   -0.145751   0.007835
     2  O   -0.378661   0.016371
     3  C   -0.382977  -0.041486
     4  C   -0.192513   0.005000
     5  C    0.288563   0.013814
     6  C   -0.318010   1.051209
     7  H    0.178088   0.017273
     8  H    0.173291   0.009528
     9  H    0.140208   0.000334
    10  H    0.141611   0.000235
    11  H    0.133450  -0.000009
    12  H    0.182216  -0.039281
    13  H    0.180486  -0.040821
 Sum of Mulliken charges =  -0.00000   1.00000

 Dipole moment (field-independent basis, Debye):
    X=              0.1243    Y=             -1.7342    Z=              0.4640  Tot=              1.7995
 Quadrupole moment (field-independent basis, Debye-Ang):
   XX=            -31.8856   YY=            -40.6257   ZZ=            -35.6671
   XY=             -2.5275   XZ=             -0.0189   YZ=              1.7371

 Normal termination of Gaussian 16 at Mon Mar 11 01:30:20 2019.
