 Gaussian 16, Revision A.03,
 Gaussian 16:  EM64L-G16RevA.03 25-Dec-2016

 ----------------------------------------------
 #p m062x/6-311+g(2df,2p) Opt=(CalcFC,ModRedun)
 ----------------------------------------------

 ----------------------------------------
 Gaussian Input Prepared from Scan Object
 ----------------------------------------
 Symbolic Z-matrix:
 Charge =  0 Multiplicity = 1

 SCF Done:  E(RM062X) =  -307.676359431     A.U. after   12 cycles

  Exact polarizability:   0.000   0.000   0.000   0.000   0.000   0.000
 Approx polarizability:  63.729  -1.129  68.878   0.000   0.000  55.052

 Optimization completed.
    -- Stationary point found.
 SCF Done:  E(RM062X) =  -307.670124354     A.U. after   13 cycles
 SCF Done:  E(RM062X) =  -307.671633558     A.U. after   11 cycles
 SCF Done:  E(RM062X) =  -307.671741887     A.U. after   11 cycles
 SCF Done:  E(RM062X) =  -307.671752811     A.U. after    9 cycles
 SCF Done:  E(RM062X) =  -307.671753509     A.U. after    8 cycles
 SCF Done:  E(RM062X) =  -307.671753520     A.U. after    6 cycles
 Optimization completed.
 SCF Done:  E(RM062X) =  -307.658703983     A.U. after   13 cycles
 SCF Done:  E(RM062X) =  -307.661708079     A.U. after   12 cycles
 SCF Done:  E(RM062X) =  -307.661984819     A.U. after   10 cycles
 SCF Done:  E(RM062X) =  -307.671752880     A.U. after   10 cycles
 SCF Done:  E(RM062X) =  -307.671753468     A.U. after    8 cycles
 SCF Done:  E(RM062X) =  -307.671753499     A.U. after    6 cycles
    -- Stationary point found.
 SCF Done:  E(RM062X) =  -307.675108180     A.U. after   12 cycles
 SCF Done:  E(RM062X) =  -307.676204549     A.U. after   11 cycles
 SCF Done:  E(RM062X) =  -307.676311792     A.U. after   11 cycles
 SCF Done:  E(RM062X) =  -307.676352622     A.U. after   10 cycles
 SCF Done:  E(RM062X) =  -307.676359174     A.U. after    9 cycles
 SCF Done:  E(RM062X) =  -307.676359427     A.U. after    7 cycles
 SCF Done:  E(RM062X) =  -307.676359431     A.U. after    6 cycles
 Optimization completed.
    -- Stationary point found.

                         Standard orientation:
 ---------------------------------------------------------------------
 Center     Atomic      Atomic             Coordinates (Angstroms)
 Number     Number       Type             X           Y           Z
 ---------------------------------------------------------------------
      1          8           0        1.143257   -0.700734   -0.000004
      2          8           0        0.101863    1.277729    0.000023
      3          6           0       -1.211131   -0.743684    0.000028
      4          6           0       -2.460734    0.119866   -0.000033
      5          6           0        2.388072   -0.006670   -0.000019
      6          6           0        0.051249    0.078881    0.000013
      7          1           0       -1.171937   -1.400992   -0.870357
      8          1           0       -1.171966   -1.400897    0.870487
      9          1           0       -2.484285    0.763637    0.876992
     10          1           0       -3.354195   -0.501497   -0.000014
     11          1           0       -2.484262    0.763550   -0.877123
     12          1           0        3.157077   -0.771764   -0.000050
     13          1           0        2.471916    0.620838   -0.885163
     14          1           0        2.471958    0.620807    0.885143
 ---------------------------------------------------------------------

 The electronic state is 1-A.
 Alpha  occ. eigenvalues --  -19.66864 -19.61279 -10.66806 -10.58922 -10.55063
 Alpha  occ. eigenvalues --  -10.52800  -1.23856  -1.14353  -0.89349  -0.82387
 Alpha  occ. eigenvalues --   -0.73252  -0.64607  -0.58973  -0.58005  -0.56227
 Alpha  occ. eigenvalues --   -0.52482  -0.50589  -0.46018  -0.44639  -0.44049
 Alpha  occ. eigenvalues --   -0.42653  -0.41442  -0.37843  -0.35594
 Alpha virt. eigenvalues --    0.01131   0.02431   0.03677   0.03960   0.05005
 Alpha virt. eigenvalues --    0.05090   0.05753   0.06577   0.08384   0.08734
 Alpha virt. eigenvalues --    0.09016   0.09734   0.10542   0.12387   0.14286

 Mulliken charges:
               1
     1  O   -0.163504
     2  O   -0.407933
     3  C   -0.122873
     4  C   -0.485104
     5  C   -0.184709
     6  C    0.206546
     7  H    0.156795
     8  H    0.156797
     9  H    0.150338
    10  H    0.133789
    11  H    0.150337
    12  H    0.131994
    13  H    0.138764
    14  H    0.138764
 Sum of Mulliken charges =  -0.00000

 Dipole moment (field-independent basis, Debye):
    X=              0.3634    Y=             -1.6693    Z=             -0.0000  Tot=              1.7084
 Quadrupole moment (field-independent basis, Debye-Ang):
   XX=            -30.8399   YY=            -41.3455   ZZ=            -35.8976
   XY=              1.4919   XZ=             -0.0001   YZ=             -0.0001

 Normal termination of Gaussian 16 at Fri Mar 29 16:47:24 2019.
