 Gaussian 16, Revision A.03,
 Gaussian 16:  EM64L-G16RevA.03 25-Dec-2016

 ----------------------------------------------
 #p m062x/6-311+g(2df,2p) Opt=(CalcFC,ModRedun)
 ----------------------------------------------

 ----------------------------------------
 Gaussian Input Prepared from Scan Object
 ----------------------------------------
 Symbolic Z-matrix:
 Charge =  0 Multiplicity = 1

 SCF Done:  E(RM062X) =  -307.676359431     A.U. after   12 cycles

  Exact polarizability:   0.000   0.000   0.000   0.000   0.000   0.000
 Approx polarizability:  63.729  -1.129  68.878   0.000   0.000  55.052

 Optimization completed.
    -- Stationary point found.
 SCF Done:  E(RM062X) =  -307.675276408     A.U. after   10 cycles
 SCF Done:  E(RM062X) =  -307.676197139     A.U. after   10 cycles
 SCF Done:  E(RM062X) =  -307.676199409     A.U. after    8 cycles
 Optimization completed.
 SCF Done:  E(RM062X) =  -307.674822402     A.U. after   10 cycles
 SCF Done:  E(RM062X) =  -307.675786973     A.U. after   10 cycles
 SCF Done:  E(RM062X) =  -307.675790146     A.U. after    7 cycles
 SCF Done:  E(RM062X) =  -307.674244287     A.U. after   10 cycles
 SCF Done:  E(RM062X) =  -307.675279139     A.U. after    9 cycles
 SCF Done:  E(RM062X) =  -307.675281010     A.U. after    7 cycles
 SCF Done:  E(RM062X) =  -307.675266543     A.U. after    8 cycles
 SCF Done:  E(RM062X) =  -307.674731282     A.U. after   10 cycles
 SCF Done:  E(RM062X) =  -307.675780446     A.U. after   10 cycles
 SCF Done:  E(RM062X) =  -307.675782065     A.U. after    8 cycles
 SCF Done:  E(RM062X) =  -307.675208482     A.U. after   10 cycles
 SCF Done:  E(RM062X) =  -307.676195496     A.U. after   10 cycles
 SCF Done:  E(RM062X) =  -307.676197919     A.U. after    8 cycles
    -- Stationary point found.
 SCF Done:  E(RM062X) =  -307.675426174     A.U. after   10 cycles
 SCF Done:  E(RM062X) =  -307.676357445     A.U. after   10 cycles
 SCF Done:  E(RM062X) =  -307.676359428     A.U. after    7 cycles
 Optimization completed.
    -- Stationary point found.

                         Standard orientation:
 ---------------------------------------------------------------------
 Center     Atomic      Atomic             Coordinates (Angstroms)
 Number     Number       Type             X           Y           Z
 ---------------------------------------------------------------------
      1          8           0        1.143271   -0.700709   -0.000001
      2          8           0        0.101842    1.277741    0.000001
      3          6           0       -1.211133   -0.743683    0.000005
      4          6           0       -2.460754    0.119842   -0.000003
      5          6           0        2.388113   -0.006683   -0.000002
      6          6           0        0.051232    0.078899    0.000007
      7          1           0       -1.171933   -1.400936   -0.870422
      8          1           0       -1.171947   -1.400949    0.870423
      9          1           0       -2.484310    0.763569    0.877054
     10          1           0       -3.354204   -0.501538   -0.000005
     11          1           0       -2.484302    0.763564   -0.877063
     12          1           0        3.157155   -0.771757    0.000009
     13          1           0        2.471908    0.620750   -0.885194
     14          1           0        2.471987    0.620795    0.885158
 ---------------------------------------------------------------------

 The electronic state is 1-A.
 Alpha  occ. eigenvalues --  -19.66863 -19.61279 -10.66806 -10.58922 -10.55063
 Alpha  occ. eigenvalues --  -10.52800  -1.23855  -1.14353  -0.89349  -0.82387
 Alpha  occ. eigenvalues --   -0.73252  -0.64606  -0.58973  -0.58005  -0.56226
 Alpha  occ. eigenvalues --   -0.52483  -0.50589  -0.46018  -0.44640  -0.44048
 Alpha  occ. eigenvalues --   -0.42652  -0.41442  -0.37843  -0.35594
 Alpha virt. eigenvalues --    0.01131   0.02431   0.03677   0.03960   0.05005
 Alpha virt. eigenvalues --    0.05090   0.05753   0.06577   0.08384   0.08734
 Alpha virt. eigenvalues --    0.09016   0.09734   0.10542   0.12387   0.14286

 Mulliken charges:
               1
     1  O   -0.163516
     2  O   -0.407929
     3  C   -0.122862
     4  C   -0.485104
     5  C   -0.184706
     6  C    0.206544
     7  H    0.156797
     8  H    0.156796
     9  H    0.150337
    10  H    0.133790
    11  H    0.150337
    12  H    0.131994
    13  H    0.138761
    14  H    0.138762
 Sum of Mulliken charges =  -0.00000

 Dipole moment (field-independent basis, Debye):
    X=              0.3634    Y=             -1.6693    Z=              0.0000  Tot=              1.7084
 Quadrupole moment (field-independent basis, Debye-Ang):
   XX=            -30.8396   YY=            -41.3457   ZZ=            -35.8975
   XY=              1.4918   XZ=              0.0001   YZ=             -0.0000

 Normal termination of Gaussian 16 at Tue Apr 23 23:26:20 2019.
