 Gaussian 16, Revision A.03,
 Gaussian 16:  EM64L-G16RevA.03 25-Dec-2016

 ----------------------------------------------
 #p m062x/6-311+g(2df,2p) Opt=(CalcFC,ModRedun)
 ----------------------------------------------

 ----------------------------------------
 Gaussian Input Prepared from Scan Object
 ----------------------------------------
 Symbolic Z-matrix:
 Charge =  0 Multiplicity = 1

 SCF Done:  E(RM062X) =  -307.676359431     A.U. after   12 cycles

  Exact polarizability:   0.000   0.000   0.000   0.000   0.000   0.000
 Approx polarizability:  63.729  -1.129  68.878   0.000   0.000  55.052

 Optimization completed.
    -- Stationary point found.
 SCF Done:  E(RM062X) =  -307.666345118     A.U. after   11 cycles
 SCF Done:  E(RM062X) =  -307.674821080     A.U. after   11 cycles
 SCF Done:  E(RM062X) =  -307.675276354     A.U. after   10 cycles
 SCF Done:  E(RM062X) =  -307.675280114     A.U. after    9 cycles
 SCF Done:  E(RM062X) =  -307.675280198     A.U. after    7 cycles
 Optimization completed.
 SCF Done:  E(RM062X) =  -307.664084411     A.U. after   12 cycles
 SCF Done:  E(RM062X) =  -307.673808437     A.U. after   11 cycles
 SCF Done:  E(RM062X) =  -307.674387721     A.U. after   10 cycles
 SCF Done:  E(RM062X) =  -307.674392641     A.U. after    9 cycles
 SCF Done:  E(RM062X) =  -307.674385384     A.U. after   10 cycles
 SCF Done:  E(RM062X) =  -307.674392965     A.U. after    9 cycles
 SCF Done:  E(RM062X) =  -307.665080657     A.U. after   11 cycles
 SCF Done:  E(RM062X) =  -307.674721711     A.U. after   11 cycles
 SCF Done:  E(RM062X) =  -307.675287660     A.U. after   10 cycles
 SCF Done:  E(RM062X) =  -307.675293296     A.U. after    9 cycles
    -- Stationary point found.
 SCF Done:  E(RM062X) =  -307.667385916     A.U. after   11 cycles
 SCF Done:  E(RM062X) =  -307.675973686     A.U. after   11 cycles
 SCF Done:  E(RM062X) =  -307.676353620     A.U. after   10 cycles
 SCF Done:  E(RM062X) =  -307.676359360     A.U. after    8 cycles
 Optimization completed.
    -- Stationary point found.

                         Standard orientation:
 ---------------------------------------------------------------------
 Center     Atomic      Atomic             Coordinates (Angstroms)
 Number     Number       Type             X           Y           Z
 ---------------------------------------------------------------------
      1          8           0        1.143296   -0.700969   -0.000132
      2          8           0        0.102229    1.277512   -0.000158
      3          6           0       -1.211241   -0.743657   -0.000062
      4          6           0       -2.460678    0.120138    0.000167
      5          6           0        2.387792   -0.006477    0.000199
      6          6           0        0.051280    0.078679   -0.000118
      7          1           0       -1.172295   -1.400814   -0.870574
      8          1           0       -1.172098   -1.401030    0.870276
      9          1           0       -2.484016    0.763743    0.877319
     10          1           0       -3.354263   -0.501046    0.000151
     11          1           0       -2.484156    0.763996   -0.876795
     12          1           0        3.156911   -0.771466    0.000058
     13          1           0        2.471597    0.621210   -0.884715
     14          1           0        2.471197    0.620960    0.885473
 ---------------------------------------------------------------------

 The electronic state is 1-A.
 Alpha  occ. eigenvalues --  -19.66863 -19.61279 -10.66806 -10.58918 -10.55064
 Alpha  occ. eigenvalues --  -10.52801  -1.23858  -1.14352  -0.89350  -0.82385
 Alpha  occ. eigenvalues --   -0.73252  -0.64607  -0.58975  -0.58006  -0.56226
 Alpha  occ. eigenvalues --   -0.52483  -0.50588  -0.46016  -0.44638  -0.44050
 Alpha  occ. eigenvalues --   -0.42655  -0.41443  -0.37843  -0.35595
 Alpha virt. eigenvalues --    0.01131   0.02431   0.03677   0.03960   0.05005
 Alpha virt. eigenvalues --    0.05090   0.05753   0.06577   0.08385   0.08734
 Alpha virt. eigenvalues --    0.09015   0.09734   0.10542   0.12388   0.14287

 Mulliken charges:
               1
     1  O   -0.163525
     2  O   -0.407916
     3  C   -0.122923
     4  C   -0.485100
     5  C   -0.184687
     6  C    0.206553
     7  H    0.156803
     8  H    0.156797
     9  H    0.150338
    10  H    0.133797
    11  H    0.150342
    12  H    0.131987
    13  H    0.138783
    14  H    0.138752
 Sum of Mulliken charges =  -0.00000

 Dipole moment (field-independent basis, Debye):
    X=              0.3614    Y=             -1.6686    Z=              0.0004  Tot=              1.7073
 Quadrupole moment (field-independent basis, Debye-Ang):
   XX=            -30.8435   YY=            -41.3443   ZZ=            -35.8977
   XY=              1.4927   XZ=              0.0004   YZ=              0.0004

 Normal termination of Gaussian 16 at Fri Mar 29 16:35:29 2019.
