 Gaussian 16, Revision A.03,
 Gaussian 16:  EM64L-G16RevA.03 25-Dec-2016

 ----------------------------------------------------------------------
 #p m062x/6-311+g(2df,2p) opt=(calcfc,verytight,gdiis,maxcycles=900) fr
 eq iop(7/33=1,2/16=3)
 ----------------------------------------------------------------------

 ------------------------------
 Gaussian input prepared by ASE
 ------------------------------
 Symbolic Z-matrix:
 Charge =  0 Multiplicity = 1

 SCF Done:  E(RM062X) =  -307.658762058     A.U. after   13 cycles
 SCF Done:  E(RM062X) =  -307.672919636     A.U. after   11 cycles
 SCF Done:  E(RM062X) =  -307.674203129     A.U. after   13 cycles
 SCF Done:  E(RM062X) =  -307.674593453     A.U. after   11 cycles
 SCF Done:  E(RM062X) =  -307.674657167     A.U. after   10 cycles
 SCF Done:  E(RM062X) =  -307.674663532     A.U. after    9 cycles
 SCF Done:  E(RM062X) =  -307.674667501     A.U. after    9 cycles
 SCF Done:  E(RM062X) =  -307.674668804     A.U. after    8 cycles
 SCF Done:  E(RM062X) =  -307.674671224     A.U. after    9 cycles
 SCF Done:  E(RM062X) =  -307.674609376     A.U. after   10 cycles
 SCF Done:  E(RM062X) =  -307.674672790     A.U. after    7 cycles
 SCF Done:  E(RM062X) =  -307.674672812     A.U. after    6 cycles
 SCF Done:  E(RM062X) =  -307.674672807     A.U. after    6 cycles
 SCF Done:  E(RM062X) =  -307.674672807     A.U. after    3 cycles
 SCF Done:  E(RM062X) =  -307.674672808     A.U. after    5 cycles
 SCF Done:  E(RM062X) =  -307.674672807     A.U. after    5 cycles
 SCF Done:  E(RM062X) =  -307.674672807     A.U. after    3 cycles
 SCF Done:  E(RM062X) =  -307.674672807     A.U. after    3 cycles
 SCF Done:  E(RM062X) =  -307.674672807     A.U. after    2 cycles
 Optimization completed.
    -- Stationary point found.
 Normal termination of Gaussian 16 at Tue Apr  9 02:02:03 2019.

 ----------------------------------------------------------------------
 #P Geom=AllCheck Guess=TCheck SCRF=Check Test GenChk RM062X/6-311+G(2d
 f,2p) Freq
 ----------------------------------------------------------------------

 Structure from the checkpoint file:  "/scratch/underkoffler.c/gaussian_scratch/Gau-44136.chk"
 ------------------------------
 Gaussian input prepared by ASE
 ------------------------------
 Charge =  0 Multiplicity = 1

                         Standard orientation:
 ---------------------------------------------------------------------
 Center     Atomic      Atomic             Coordinates (Angstroms)
 Number     Number       Type             X           Y           Z
 ---------------------------------------------------------------------
      1          8           0        0.774053   -0.667254    0.293238
      2          8           0        0.526949    1.468362   -0.319838
      3          6           0       -1.373978    0.264281    0.543698
      4          6           0       -2.111156   -0.652027   -0.435831
      5          6           0        2.138509   -0.588660   -0.110412
      6          6           0        0.059730    0.457634    0.128020
      7          1           0       -1.389187   -0.171105    1.542887
      8          1           0       -1.834810    1.247973    0.580930
      9          1           0       -3.150112   -0.769722   -0.134359
     10          1           0       -1.647850   -1.636261   -0.465090
     11          1           0       -2.095421   -0.233394   -1.441425
     12          1           0        2.565022   -1.567085    0.083463
     13          1           0        2.658959    0.176647    0.461991
     14          1           0        2.206755   -0.343278   -1.168444
 ---------------------------------------------------------------------

 SCF Done:  E(RM062X) =  -307.674672807     A.U. after    1 cycles

 The electronic state is 1-A.
 Alpha  occ. eigenvalues --  -19.66928 -19.61175 -10.66755 -10.58936 -10.55001
 Alpha  occ. eigenvalues --  -10.53737  -1.23831  -1.14251  -0.89702  -0.81973
 Alpha  occ. eigenvalues --   -0.73867  -0.65201  -0.58787  -0.57068  -0.56708
 Alpha  occ. eigenvalues --   -0.52064  -0.49901  -0.48171  -0.45419  -0.43025
 Alpha  occ. eigenvalues --   -0.42923  -0.42237  -0.37817  -0.35138
 Alpha virt. eigenvalues --    0.01147   0.02218   0.03233   0.04229   0.04539
 Alpha virt. eigenvalues --    0.05576   0.06027   0.06514   0.08184   0.08530
 Alpha virt. eigenvalues --    0.09165   0.10103   0.10850   0.12537   0.12736

 Mulliken charges:
               1
     1  O   -0.158056
     2  O   -0.386859
     3  C   -0.367828
     4  C   -0.393654
     5  C   -0.193103
     6  C    0.298663
     7  H    0.173275
     8  H    0.169285
     9  H    0.138182
    10  H    0.153153
    11  H    0.151323
    12  H    0.133576
    13  H    0.140834
    14  H    0.141208
 Sum of Mulliken charges =  -0.00000

 Dipole moment (field-independent basis, Debye):
    X=             -0.3415    Y=             -1.8591    Z=              0.4968  Tot=              1.9544
 Quadrupole moment (field-independent basis, Debye-Ang):
   XX=            -31.0877   YY=            -41.6369   ZZ=            -36.4773
   XY=             -2.5374   XZ=             -0.4330   YZ=              1.8323

  Exact polarizability:  63.651  -0.317  54.693  -0.976  -0.898  46.656
 Approx polarizability:  63.434   0.759  67.388  -1.594  -3.581  57.018

                      1                      2                      3
                      A                      A                      A
 Frequencies --     26.4496               139.5478               174.6027
 Red. masses --      2.8414                 2.5397                 1.1281
 Frc consts  --      0.0012                 0.0291                 0.0203
 IR Inten    --      0.5506                 2.7934                 0.0163

                      4                      5                      6
                      A                      A                      A
 Frequencies --    217.7025               264.7734               319.8137
 Red. masses --      1.1381                 3.0734                 2.9995
 Frc consts  --      0.0318                 0.1269                 0.1808
 IR Inten    --      0.6501                 6.6427                10.7179

                      7                      8                      9
                      A                      A                      A
 Frequencies --    442.9779               630.0429               755.3391
 Red. masses --      2.9439                 4.1583                 2.7867
 Frc consts  --      0.3404                 0.9725                 0.9368
 IR Inten    --      6.8569                 5.3026                 4.5092

                     10                     11                     12
                      A                      A                      A
 Frequencies --    808.1595               877.0008               983.8333
 Red. masses --      1.4107                 3.3425                 1.9583
 Frc consts  --      0.5428                 1.5147                 1.1168
 IR Inten    --      2.1653                16.4658                12.4601

                     13                     14                     15
                      A                      A                      A
 Frequencies --   1060.7199              1103.4887              1136.2755
 Red. masses --      2.6173                 1.9347                 2.8420
 Frc consts  --      1.7351                 1.3881                 2.1619
 IR Inten    --      2.7575                11.9436                78.4489

                     16                     17                     18
                      A                      A                      A
 Frequencies --   1190.5934              1222.7058              1260.5866
 Red. masses --      1.2890                 1.5083                 1.6072
 Frc consts  --      1.0765                 1.3286                 1.5047
 IR Inten    --      1.4301                 2.3332               111.1341

                     19                     20                     21
                      A                      A                      A
 Frequencies --   1324.1337              1365.1104              1415.3169
 Red. masses --      1.6274                 1.9653                 1.2353
 Frc consts  --      1.6812                 2.1578                 1.4579
 IR Inten    --    139.5472                96.3195                 8.3229

                     22                     23                     24
                      A                      A                      A
 Frequencies --   1484.4020              1489.3670              1498.2257
 Red. masses --      1.1135                 1.1790                 1.0422
 Frc consts  --      1.4455                 1.5408                 1.3783
 IR Inten    --      4.4586                17.2574                 9.3745

                     25                     26                     27
                      A                      A                      A
 Frequencies --   1506.8247              1511.8343              1515.9817
 Red. masses --      1.0393                 1.0487                 1.0816
 Frc consts  --      1.3903                 1.4123                 1.4645
 IR Inten    --      5.9737                10.5459                21.8087

                     28                     29                     30
                      A                      A                      A
 Frequencies --   1851.0780              3074.4974              3082.5846
 Red. masses --     11.2270                 1.0354                 1.0307
 Frc consts  --     22.6654                 5.7666                 5.7703
 IR Inten    --    292.0016                15.2924                25.5828

                     31                     32                     33
                      A                      A                      A
 Frequencies --   3093.0275              3141.5617              3150.8223
 Red. masses --      1.0620                 1.1013                 1.1038
 Frc consts  --      5.9860                 6.4039                 6.4566
 IR Inten    --      8.4892                 5.6222                11.3020

                     34                     35                     36
                      A                      A                      A
 Frequencies --   3154.2648              3164.3427              3188.8078
 Red. masses --      1.1064                 1.1033                 1.1062
 Frc consts  --      6.4856                 6.5089                 6.6272
 IR Inten    --     14.4632                15.2011                10.6351

 - Thermochemistry -
 -------------------
 Temperature   298.150 Kelvin.  Pressure   1.00000 Atm.
 Atom     1 has atomic number  8 and mass  15.99491

 Molecular mass:    88.05243 amu.
 Principal axes and moments of inertia in atomic units:
                           1         2         3
     Eigenvalues --   276.80927 721.09971 885.37087
           X            0.99999  -0.00513  -0.00086
           Y            0.00516   0.99903   0.04384
           Z            0.00063  -0.04385   0.99904
 This molecule is an asymmetric top.
 Rotational symmetry number  1.
 Rotational temperatures (Kelvin)      0.31290     0.12011     0.09783
 Rotational constants (GHZ):           6.51980     2.50276     2.03840
 Zero-point vibrational energy     314778.1 (Joules/Mol)
                                   75.23378 (Kcal/Mol)
 Warning -- explicit consideration of   7 degrees of freedom as
           vibrations may cause significant error
 Vibrational temperatures:     38.06   200.78   251.21   313.23   380.95
          (Kelvin)            460.14   637.35   906.49  1086.76  1162.76
                             1261.81  1415.52  1526.14  1587.67  1634.85
                             1713.00  1759.20  1813.70  1905.13  1964.09
                             2036.33  2135.72  2142.87  2155.61  2167.98
                             2175.19  2181.16  2663.29  4423.52  4435.15
                             4450.18  4520.01  4533.33  4538.28  4552.78
                             4587.98

 Zero-point correction=                           0.119893 (Hartree/Particle)
 Thermal correction to Energy=                    0.127127
 Thermal correction to Enthalpy=                  0.128071
 Thermal correction to Gibbs Free Energy=         0.087894
 Sum of electronic and zero-point Energies=           -307.554780
 Sum of electronic and thermal Energies=              -307.547546
 Sum of electronic and thermal Enthalpies=            -307.546602
 Sum of electronic and thermal Free Energies=         -307.586778

                     E (Thermal)             CV                S
                      KCal/Mol        Cal/Mol-Kelvin    Cal/Mol-Kelvin
 Total                   79.773             23.797             84.559
 Electronic               0.000              0.000              0.000
 Translational            0.889              2.981             39.339
 Rotational               0.889              2.981             26.672
 Vibrational             77.996             17.835             18.549
 Vibration     1          0.593              1.985              6.079
 Vibration     2          0.615              1.914              2.810
 Vibration     3          0.627              1.874              2.385
 Vibration     4          0.646              1.814              1.978
 Vibration     5          0.671              1.738              1.630
 Vibration     6          0.706              1.636              1.311
 Vibration     7          0.803              1.376              0.817

                           ! Non-Optimized Parameters !
 Normal termination of Gaussian 16 at Tue Apr  9 02:05:54 2019.
