 Gaussian 16, Revision A.03,
 Gaussian 16:  EM64L-G16RevA.03 25-Dec-2016

 ----------------------------------------------------------------------
 #p m062x/6-311+g(2df,2p) opt=(calcfc,verytight,gdiis,maxcycles=900) fr
 eq iop(7/33=1,2/16=3)
 ----------------------------------------------------------------------

 ------------------------------
 Gaussian input prepared by ASE
 ------------------------------
 Symbolic Z-matrix:
 Charge =  0 Multiplicity = 1

 SCF Done:  E(RM062X) =  -307.676359431     A.U. after   12 cycles
 SCF Done:  E(RM062X) =  -307.676359431     A.U. after    2 cycles
 SCF Done:  E(RM062X) =  -307.676359431     A.U. after    2 cycles
 SCF Done:  E(RM062X) =  -307.676359431     A.U. after    3 cycles
 Optimization completed.
    -- Stationary point found.
 Normal termination of Gaussian 16 at Mon Mar 11 15:54:53 2019.

 ----------------------------------------------------------------------
 #P Geom=AllCheck Guess=TCheck SCRF=Check Test GenChk RM062X/6-311+G(2d
 f,2p) Freq
 ----------------------------------------------------------------------

 Structure from the checkpoint file:  "/scratch/underkoffler.c/gaussian_scratch/Gau-7787.chk"
 ------------------------------
 Gaussian input prepared by ASE
 ------------------------------
 Charge =  0 Multiplicity = 1

                         Standard orientation:
 ---------------------------------------------------------------------
 Center     Atomic      Atomic             Coordinates (Angstroms)
 Number     Number       Type             X           Y           Z
 ---------------------------------------------------------------------
      1          8           0        1.143256   -0.700732    0.000000
      2          8           0        0.101861    1.277730   -0.000000
      3          6           0       -1.211130   -0.743685   -0.000001
      4          6           0       -2.460734    0.119865    0.000001
      5          6           0        2.388074   -0.006671    0.000000
      6          6           0        0.051249    0.078882   -0.000000
      7          1           0       -1.171953   -1.400941   -0.870426
      8          1           0       -1.171952   -1.400946    0.870420
      9          1           0       -2.484273    0.763589    0.877061
     10          1           0       -3.354195   -0.501498    0.000000
     11          1           0       -2.484274    0.763594   -0.877055
     12          1           0        3.157078   -0.771767    0.000001
     13          1           0        2.471940    0.620820   -0.885153
     14          1           0        2.471940    0.620821    0.885153
 ---------------------------------------------------------------------

 SCF Done:  E(RM062X) =  -307.676359431     A.U. after    1 cycles

 The electronic state is 1-A.
 Alpha  occ. eigenvalues --  -19.66864 -19.61279 -10.66806 -10.58922 -10.55063
 Alpha  occ. eigenvalues --  -10.52800  -1.23856  -1.14353  -0.89349  -0.82387
 Alpha  occ. eigenvalues --   -0.73252  -0.64607  -0.58973  -0.58005  -0.56227
 Alpha  occ. eigenvalues --   -0.52482  -0.50589  -0.46018  -0.44640  -0.44048
 Alpha  occ. eigenvalues --   -0.42653  -0.41442  -0.37843  -0.35594
 Alpha virt. eigenvalues --    0.01131   0.02431   0.03677   0.03960   0.05005
 Alpha virt. eigenvalues --    0.05090   0.05753   0.06577   0.08384   0.08734
 Alpha virt. eigenvalues --    0.09016   0.09734   0.10542   0.12387   0.14286

 Mulliken charges:
               1
     1  O   -0.163503
     2  O   -0.407934
     3  C   -0.122874
     4  C   -0.485103
     5  C   -0.184710
     6  C    0.206547
     7  H    0.156796
     8  H    0.156796
     9  H    0.150337
    10  H    0.133789
    11  H    0.150337
    12  H    0.131995
    13  H    0.138764
    14  H    0.138764
 Sum of Mulliken charges =  -0.00000

 Dipole moment (field-independent basis, Debye):
    X=              0.3634    Y=             -1.6693    Z=             -0.0000  Tot=              1.7084
 Quadrupole moment (field-independent basis, Debye-Ang):
   XX=            -30.8399   YY=            -41.3455   ZZ=            -35.8976
   XY=              1.4919   XZ=              0.0000   YZ=              0.0000

  Exact polarizability:  66.796  -0.605  54.011   0.000   0.000  44.137
 Approx polarizability:  63.729  -1.129  68.878   0.000   0.000  55.052

                      1                      2                      3
                      A                      A                      A
 Frequencies --     56.0669               147.3908               173.3246
 Red. masses --      2.2274                 1.6465                 1.3042
 Frc consts  --      0.0041                 0.0211                 0.0231
 IR Inten    --      0.1412                 4.1397                 1.0947

                      4                      5                      6
                      A                      A                      A
 Frequencies --    215.4748               227.0030               347.0575
 Red. masses --      3.0094                 1.2387                 4.1261
 Frc consts  --      0.0823                 0.0376                 0.2928
 IR Inten    --      2.9524                 2.0413                19.0098

                      7                      8                      9
                      A                      A                      A
 Frequencies --    454.6609               588.5373               669.2961
 Red. masses --      4.0696                 2.0624                 3.8153
 Frc consts  --      0.4956                 0.4209                 1.0070
 IR Inten    --      0.6982                 3.0006                 4.1198

                     10                     11                     12
                      A                      A                      A
 Frequencies --    818.9906               883.0760              1011.8321
 Red. masses --      1.4394                 3.1196                 2.2933
 Frc consts  --      0.5688                 1.4333                 1.3834
 IR Inten    --     10.2985                13.3547                 1.3122

                     13                     14                     15
                      A                      A                      A
 Frequencies --   1061.1490              1116.5300              1127.9190
 Red. masses --      2.5882                 1.7428                 2.6782
 Frc consts  --      1.7171                 1.2801                 2.0075
 IR Inten    --     13.6572                 0.5098                 6.2169

                     16                     17                     18
                      A                      A                      A
 Frequencies --   1188.7405              1218.8418              1259.6789
 Red. masses --      1.2899                 1.5935                 3.1566
 Frc consts  --      1.0739                 1.3948                 2.9512
 IR Inten    --      1.4616                33.4619               344.5382

                     19                     20                     21
                      A                      A                      A
 Frequencies --   1286.6889              1400.6057              1425.5848
 Red. masses --      1.1766                 1.8853                 1.3063
 Frc consts  --      1.1477                 2.1790                 1.5642
 IR Inten    --      0.2109               107.3460                 3.0139

                     22                     23                     24
                      A                      A                      A
 Frequencies --   1469.2112              1487.5405              1497.3258
 Red. masses --      1.0808                 1.2389                 1.0420
 Frc consts  --      1.3746                 1.6152                 1.3764
 IR Inten    --     12.9259                20.6307                 9.1368

                     25                     26                     27
                      A                      A                      A
 Frequencies --   1499.4468              1508.1873              1510.9755
 Red. masses --      1.0355                 1.0677                 1.0524
 Frc consts  --      1.3717                 1.4309                 1.4156
 IR Inten    --      7.9281                21.3870                 8.1877

                     28                     29                     30
                      A                      A                      A
 Frequencies --   1850.5385              3077.2948              3081.6079
 Red. masses --     11.4341                 1.0602                 1.0355
 Frc consts  --     23.0701                 5.9153                 5.7936
 IR Inten    --    249.5557                 5.2516                28.7499

                     31                     32                     33
                      A                      A                      A
 Frequencies --   3083.3055              3109.8049              3154.3556
 Red. masses --      1.0317                 1.1010                 1.1064
 Frc consts  --      5.7789                 6.2732                 6.4859
 IR Inten    --     16.8877                 1.5940                12.4190

                     34                     35                     36
                      A                      A                      A
 Frequencies --   3155.0241              3156.0875              3190.7458
 Red. masses --      1.1032                 1.1028                 1.1059
 Frc consts  --      6.4699                 6.4722                 6.6335
 IR Inten    --     14.3766                16.1139                10.8626

 - Thermochemistry -
 -------------------
 Temperature   298.150 Kelvin.  Pressure   1.00000 Atm.
 Atom     1 has atomic number  8 and mass  15.99491

 Molecular mass:    88.05243 amu.
 Principal axes and moments of inertia in atomic units:
                           1         2         3
     Eigenvalues --   186.52716 833.17759 986.44468
           X            0.99995   0.01008   0.00000
           Y           -0.01008   0.99995  -0.00000
           Z           -0.00000   0.00000   1.00000
 This molecule is an asymmetric top.
 Rotational symmetry number  1.
 Rotational temperatures (Kelvin)      0.46435     0.10396     0.08780
 Rotational constants (GHZ):           9.67549     2.16609     1.82954
 Zero-point vibrational energy     314079.0 (Joules/Mol)
                                   75.06667 (Kcal/Mol)
 Warning -- explicit consideration of   8 degrees of freedom as
           vibrations may cause significant error
 Vibrational temperatures:     80.67   212.06   249.38   310.02   326.61
          (Kelvin)            499.34   654.16   846.77   962.97  1178.34
                             1270.55  1455.80  1526.76  1606.44  1622.82
                             1710.33  1753.64  1812.40  1851.26  2015.16
                             2051.10  2113.87  2140.24  2154.32  2157.37
                             2169.95  2173.96  2662.51  4427.54  4433.75
                             4436.19  4474.32  4538.41  4539.38  4540.91
                             4590.77

 Zero-point correction=                           0.119626 (Hartree/Particle)
 Thermal correction to Energy=                    0.126850
 Thermal correction to Enthalpy=                  0.127794
 Thermal correction to Gibbs Free Energy=         0.088306
 Sum of electronic and zero-point Energies=           -307.556733
 Sum of electronic and thermal Energies=              -307.549510
 Sum of electronic and thermal Enthalpies=            -307.548566
 Sum of electronic and thermal Free Energies=         -307.588053

                     E (Thermal)             CV                S
                      KCal/Mol        Cal/Mol-Kelvin    Cal/Mol-Kelvin
 Total                   79.599             23.969             83.109
 Electronic               0.000              0.000              0.000
 Translational            0.889              2.981             39.339
 Rotational               0.889              2.981             26.530
 Vibrational             77.822             18.007             17.240
 Vibration     1          0.596              1.975              4.591
 Vibration     2          0.617              1.906              2.706
 Vibration     3          0.627              1.875              2.399
 Vibration     4          0.645              1.817              1.997
 Vibration     5          0.651              1.800              1.903
 Vibration     6          0.725              1.581              1.180
 Vibration     7          0.813              1.351              0.782
 Vibration     8          0.946              1.056              0.470

                           ! Non-Optimized Parameters !
 Normal termination of Gaussian 16 at Mon Mar 11 16:02:02 2019.
