 Gaussian 16, Revision A.03,
 Gaussian 16:  EM64L-G16RevA.03 25-Dec-2016

 ----------------------------------------------
 #p m062x/6-311+g(2df,2p) Opt=(CalcFC,ModRedun)
 ----------------------------------------------

 ----------------------------------------
 Gaussian Input Prepared from Scan Object
 ----------------------------------------
 Symbolic Z-matrix:
 Charge =  0 Multiplicity = 1

 SCF Done:  E(RM062X) =  -307.676359431     A.U. after   12 cycles

  Exact polarizability:   0.000   0.000   0.000   0.000   0.000   0.000
 Approx polarizability:  63.729  -1.129  68.878   0.000   0.000  55.052

 Optimization completed.
    -- Stationary point found.
 SCF Done:  E(RM062X) =  -307.675014223     A.U. after   11 cycles
 SCF Done:  E(RM062X) =  -307.676239218     A.U. after   10 cycles
 SCF Done:  E(RM062X) =  -307.676253913     A.U. after    9 cycles
 Optimization completed.
 SCF Done:  E(RM062X) =  -307.674714865     A.U. after   11 cycles
 SCF Done:  E(RM062X) =  -307.675956167     A.U. after   11 cycles
 SCF Done:  E(RM062X) =  -307.675969858     A.U. after    9 cycles
 SCF Done:  E(RM062X) =  -307.674279447     A.U. after   11 cycles
 SCF Done:  E(RM062X) =  -307.675566258     A.U. after   11 cycles
 SCF Done:  E(RM062X) =  -307.675580719     A.U. after    9 cycles
 SCF Done:  E(RM062X) =  -307.674666049     A.U. after   11 cycles
 SCF Done:  E(RM062X) =  -307.675957741     A.U. after   11 cycles
 SCF Done:  E(RM062X) =  -307.675971105     A.U. after    9 cycles
 SCF Done:  E(RM062X) =  -307.674989638     A.U. after   11 cycles
 SCF Done:  E(RM062X) =  -307.676239064     A.U. after   10 cycles
 SCF Done:  E(RM062X) =  -307.676254019     A.U. after    9 cycles
    -- Stationary point found.
 SCF Done:  E(RM062X) =  -307.675112327     A.U. after   11 cycles
 SCF Done:  E(RM062X) =  -307.676342114     A.U. after   10 cycles
 SCF Done:  E(RM062X) =  -307.676358989     A.U. after    8 cycles
 SCF Done:  E(RM062X) =  -307.676359416     A.U. after    7 cycles
 Optimization completed.
    -- Stationary point found.

                         Standard orientation:
 ---------------------------------------------------------------------
 Center     Atomic      Atomic             Coordinates (Angstroms)
 Number     Number       Type             X           Y           Z
 ---------------------------------------------------------------------
      1          8           0        1.143225   -0.700732   -0.000052
      2          8           0        0.101868    1.277750    0.000049
      3          6           0       -1.211110   -0.743740    0.000106
      4          6           0       -2.460688    0.119881   -0.000109
      5          6           0        2.388048   -0.006680   -0.000052
      6          6           0        0.051224    0.078901    0.000159
      7          1           0       -1.171704   -1.400866   -0.870407
      8          1           0       -1.172206   -1.401071    0.870467
      9          1           0       -2.484268    0.763698    0.876882
     10          1           0       -3.354191   -0.501421   -0.000139
     11          1           0       -2.484100    0.763510   -0.877246
     12          1           0        3.157043   -0.771784   -0.000231
     13          1           0        2.471847    0.620944   -0.885117
     14          1           0        2.471988    0.620675    0.885191
 ---------------------------------------------------------------------

 The electronic state is 1-A.
 Alpha  occ. eigenvalues --  -19.66863 -19.61279 -10.66806 -10.58922 -10.55063
 Alpha  occ. eigenvalues --  -10.52800  -1.23855  -1.14353  -0.89349  -0.82387
 Alpha  occ. eigenvalues --   -0.73252  -0.64607  -0.58973  -0.58005  -0.56227
 Alpha  occ. eigenvalues --   -0.52482  -0.50589  -0.46018  -0.44639  -0.44048
 Alpha  occ. eigenvalues --   -0.42653  -0.41443  -0.37843  -0.35594
 Alpha virt. eigenvalues --    0.01131   0.02431   0.03677   0.03960   0.05005
 Alpha virt. eigenvalues --    0.05090   0.05753   0.06577   0.08384   0.08734
 Alpha virt. eigenvalues --    0.09016   0.09734   0.10542   0.12387   0.14286

 Mulliken charges:
               1
     1  O   -0.163501
     2  O   -0.407929
     3  C   -0.122913
     4  C   -0.485099
     5  C   -0.184712
     6  C    0.206568
     7  H    0.156805
     8  H    0.156798
     9  H    0.150340
    10  H    0.133788
    11  H    0.150335
    12  H    0.131994
    13  H    0.138766
    14  H    0.138760
 Sum of Mulliken charges =  -0.00000

 Dipole moment (field-independent basis, Debye):
    X=              0.3634    Y=             -1.6693    Z=              0.0001  Tot=              1.7084
 Quadrupole moment (field-independent basis, Debye-Ang):
   XX=            -30.8406   YY=            -41.3455   ZZ=            -35.8975
   XY=              1.4919   XZ=             -0.0003   YZ=             -0.0003

 Normal termination of Gaussian 16 at Tue Apr 23 22:58:07 2019.
