 Gaussian 16, Revision A.03,
 Gaussian 16:  EM64L-G16RevA.03 25-Dec-2016

 ----------------------------------------------------------------------
 #p m062x/6-311+g(2df,2p) opt=(calcfc,verytight,gdiis,maxcycles=900) fr
 eq iop(7/33=1,2/16=3)
 ----------------------------------------------------------------------

 ------------------------------
 Gaussian input prepared by ASE
 ------------------------------
 Symbolic Z-matrix:
 Charge =  0 Multiplicity = 1

 SCF Done:  E(RM062X) =  -307.658605372     A.U. after   13 cycles
 SCF Done:  E(RM062X) =  -307.672762339     A.U. after   11 cycles
 SCF Done:  E(RM062X) =  -307.674250086     A.U. after   11 cycles
 SCF Done:  E(RM062X) =  -307.672323316     A.U. after   12 cycles
 SCF Done:  E(RM062X) =  -307.674472808     A.U. after   11 cycles
 SCF Done:  E(RM062X) =  -307.674526359     A.U. after   10 cycles
 SCF Done:  E(RM062X) =  -307.674538424     A.U. after   10 cycles
 SCF Done:  E(RM062X) =  -307.674554369     A.U. after    8 cycles
 SCF Done:  E(RM062X) =  -307.674531494     A.U. after   10 cycles
 SCF Done:  E(RM062X) =  -307.674618595     A.U. after   11 cycles
 SCF Done:  E(RM062X) =  -307.674672807     A.U. after    2 cycles
 SCF Done:  E(RM062X) =  -307.674672802     A.U. after    6 cycles
 SCF Done:  E(RM062X) =  -307.674672805     A.U. after    5 cycles
 SCF Done:  E(RM062X) =  -307.674672805     A.U. after    3 cycles
 SCF Done:  E(RM062X) =  -307.674672805     A.U. after    3 cycles
 SCF Done:  E(RM062X) =  -307.674672806     A.U. after    3 cycles
 SCF Done:  E(RM062X) =  -307.674672805     A.U. after    4 cycles
 SCF Done:  E(RM062X) =  -307.674672805     A.U. after    2 cycles
 SCF Done:  E(RM062X) =  -307.674672806     A.U. after    2 cycles
 Optimization completed.
    -- Stationary point found.
 Normal termination of Gaussian 16 at Tue Apr  9 02:11:42 2019.

 ----------------------------------------------------------------------
 #P Geom=AllCheck Guess=TCheck SCRF=Check Test GenChk RM062X/6-311+G(2d
 f,2p) Freq
 ----------------------------------------------------------------------

 Structure from the checkpoint file:  "/scratch/underkoffler.c/gaussian_scratch/Gau-33977.chk"
 ------------------------------
 Gaussian input prepared by ASE
 ------------------------------
 Charge =  0 Multiplicity = 1

                         Standard orientation:
 ---------------------------------------------------------------------
 Center     Atomic      Atomic             Coordinates (Angstroms)
 Number     Number       Type             X           Y           Z
 ---------------------------------------------------------------------
      1          8           0        0.774127   -0.667248    0.293268
      2          8           0        0.526841    1.468340   -0.319833
      3          6           0       -1.373960    0.264136    0.543804
      4          6           0       -2.111174   -0.651938   -0.435921
      5          6           0        2.138550   -0.588573   -0.110474
      6          6           0        0.059717    0.457588    0.128071
      7          1           0       -1.389118   -0.171493    1.542885
      8          1           0       -1.834802    1.247814    0.581284
      9          1           0       -3.150112   -0.769729   -0.134426
     10          1           0       -1.647851   -1.636157   -0.465450
     11          1           0       -2.095494   -0.233050   -1.441409
     12          1           0        2.658989    0.176776    0.461883
     13          1           0        2.206710   -0.343203   -1.168514
     14          1           0        2.565140   -1.566968    0.083388
 ---------------------------------------------------------------------

 SCF Done:  E(RM062X) =  -307.674672806     A.U. after    1 cycles

 The electronic state is 1-A.
 Alpha  occ. eigenvalues --  -19.66928 -19.61175 -10.66755 -10.58936 -10.55001
 Alpha  occ. eigenvalues --  -10.53737  -1.23831  -1.14251  -0.89702  -0.81973
 Alpha  occ. eigenvalues --   -0.73867  -0.65201  -0.58787  -0.57068  -0.56708
 Alpha  occ. eigenvalues --   -0.52064  -0.49901  -0.48171  -0.45419  -0.43025
 Alpha  occ. eigenvalues --   -0.42923  -0.42238  -0.37817  -0.35138
 Alpha virt. eigenvalues --    0.01147   0.02218   0.03233   0.04229   0.04539
 Alpha virt. eigenvalues --    0.05576   0.06027   0.06514   0.08184   0.08530
 Alpha virt. eigenvalues --    0.09164   0.10103   0.10850   0.12537   0.12736

 Mulliken charges:
               1
     1  O   -0.158057
     2  O   -0.386849
     3  C   -0.367817
     4  C   -0.393639
     5  C   -0.193102
     6  C    0.298632
     7  H    0.173273
     8  H    0.169283
     9  H    0.138182
    10  H    0.153149
    11  H    0.151328
    12  H    0.140834
    13  H    0.141207
    14  H    0.133577
 Sum of Mulliken charges =  -0.00000

 Dipole moment (field-independent basis, Debye):
    X=             -0.3414    Y=             -1.8591    Z=              0.4967  Tot=              1.9544
 Quadrupole moment (field-independent basis, Debye-Ang):
   XX=            -31.0873   YY=            -41.6369   ZZ=            -36.4774
   XY=             -2.5366   XZ=             -0.4333   YZ=              1.8324

  Exact polarizability:  63.652  -0.318  54.692  -0.976  -0.898  46.656
 Approx polarizability:  63.434   0.758  67.388  -1.593  -3.581  57.019

                      1                      2                      3
                      A                      A                      A
 Frequencies --     26.4146               139.5459               174.5991
 Red. masses --      2.8415                 2.5399                 1.1281
 Frc consts  --      0.0012                 0.0291                 0.0203
 IR Inten    --      0.5509                 2.7931                 0.0163

                      4                      5                      6
                      A                      A                      A
 Frequencies --    217.7006               264.7861               319.8022
 Red. masses --      1.1381                 3.0736                 2.9993
 Frc consts  --      0.0318                 0.1270                 0.1807
 IR Inten    --      0.6500                 6.6427                10.7184

                      7                      8                      9
                      A                      A                      A
 Frequencies --    442.9733               630.0496               755.3631
 Red. masses --      2.9438                 4.1582                 2.7872
 Frc consts  --      0.3403                 0.9725                 0.9370
 IR Inten    --      6.8563                 5.3026                 4.5102

                     10                     11                     12
                      A                      A                      A
 Frequencies --    808.1473               877.0020               983.8324
 Red. masses --      1.4106                 3.3423                 1.9585
 Frc consts  --      0.5428                 1.5146                 1.1169
 IR Inten    --      2.1635                16.4661                12.4581

                     13                     14                     15
                      A                      A                      A
 Frequencies --   1060.7148              1103.4823              1136.2731
 Red. masses --      2.6172                 1.9347                 2.8419
 Frc consts  --      1.7349                 1.3880                 2.1619
 IR Inten    --      2.7587                11.9470                78.4439

                     16                     17                     18
                      A                      A                      A
 Frequencies --   1190.5940              1222.7049              1260.5774
 Red. masses --      1.2890                 1.5083                 1.6072
 Frc consts  --      1.0765                 1.3286                 1.5047
 IR Inten    --      1.4301                 2.3346               111.1343

                     19                     20                     21
                      A                      A                      A
 Frequencies --   1324.1293              1365.1086              1415.3111
 Red. masses --      1.6273                 1.9654                 1.2353
 Frc consts  --      1.6810                 2.1579                 1.4579
 IR Inten    --    139.5192                96.3544                 8.3260

                     22                     23                     24
                      A                      A                      A
 Frequencies --   1484.4001              1489.3687              1498.2248
 Red. masses --      1.1135                 1.1790                 1.0422
 Frc consts  --      1.4455                 1.5408                 1.3783
 IR Inten    --      4.4586                17.2580                 9.3746

                     25                     26                     27
                      A                      A                      A
 Frequencies --   1506.8238              1511.8355              1515.9804
 Red. masses --      1.0393                 1.0487                 1.0816
 Frc consts  --      1.3903                 1.4123                 1.4645
 IR Inten    --      5.9752                10.5418                21.8124

                     28                     29                     30
                      A                      A                      A
 Frequencies --   1851.0777              3074.4968              3082.5853
 Red. masses --     11.2269                 1.0354                 1.0307
 Frc consts  --     22.6653                 5.7666                 5.7703
 IR Inten    --    291.9933                15.2929                25.5822

                     31                     32                     33
                      A                      A                      A
 Frequencies --   3093.0400              3141.5627              3150.8259
 Red. masses --      1.0620                 1.1013                 1.1038
 Frc consts  --      5.9861                 6.4039                 6.4566
 IR Inten    --      8.4883                 5.6230                11.3018

                     34                     35                     36
                      A                      A                      A
 Frequencies --   3154.2652              3164.3471              3188.8095
 Red. masses --      1.1064                 1.1033                 1.1062
 Frc consts  --      6.4856                 6.5089                 6.6272
 IR Inten    --     14.4633                15.1997                10.6352

 - Thermochemistry -
 -------------------
 Temperature   298.150 Kelvin.  Pressure   1.00000 Atm.
 Atom     1 has atomic number  8 and mass  15.99491

 Molecular mass:    88.05243 amu.
 Principal axes and moments of inertia in atomic units:
                           1         2         3
     Eigenvalues --   276.79980 721.12346 885.35935
           X            0.99999  -0.00512  -0.00086
           Y            0.00515   0.99902   0.04385
           Z            0.00063  -0.04386   0.99904
 This molecule is an asymmetric top.
 Rotational symmetry number  1.
 Rotational temperatures (Kelvin)      0.31291     0.12011     0.09783
 Rotational constants (GHZ):           6.52002     2.50268     2.03843
 Zero-point vibrational energy     314777.9 (Joules/Mol)
                                   75.23372 (Kcal/Mol)
 Warning -- explicit consideration of   7 degrees of freedom as
           vibrations may cause significant error
 Vibrational temperatures:     38.00   200.78   251.21   313.22   380.97
          (Kelvin)            460.12   637.34   906.50  1086.80  1162.74
                             1261.81  1415.52  1526.13  1587.66  1634.84
                             1713.00  1759.20  1813.69  1905.13  1964.09
                             2036.32  2135.72  2142.87  2155.61  2167.98
                             2175.19  2181.16  2663.29  4423.52  4435.15
                             4450.19  4520.01  4533.34  4538.28  4552.79
                             4587.99

 Zero-point correction=                           0.119893 (Hartree/Particle)
 Thermal correction to Energy=                    0.127127
 Thermal correction to Enthalpy=                  0.128071
 Thermal correction to Gibbs Free Energy=         0.087893
 Sum of electronic and zero-point Energies=           -307.554780
 Sum of electronic and thermal Energies=              -307.547546
 Sum of electronic and thermal Enthalpies=            -307.546602
 Sum of electronic and thermal Free Energies=         -307.586780

                     E (Thermal)             CV                S
                      KCal/Mol        Cal/Mol-Kelvin    Cal/Mol-Kelvin
 Total                   79.773             23.797             84.562
 Electronic               0.000              0.000              0.000
 Translational            0.889              2.981             39.339
 Rotational               0.889              2.981             26.671
 Vibrational             77.996             17.835             18.552
 Vibration     1          0.593              1.985              6.082
 Vibration     2          0.615              1.914              2.810
 Vibration     3          0.627              1.874              2.385
 Vibration     4          0.646              1.814              1.978
 Vibration     5          0.671              1.738              1.630
 Vibration     6          0.706              1.636              1.311
 Vibration     7          0.803              1.376              0.817

                           ! Non-Optimized Parameters !
 Normal termination of Gaussian 16 at Tue Apr  9 02:16:41 2019.
