 Gaussian 16, Revision A.03,
 Gaussian 16:  EM64L-G16RevA.03 25-Dec-2016

 ----------------------------------------------
 #p m062x/6-311+g(2df,2p) Opt=(CalcFC,ModRedun)
 ----------------------------------------------

 ----------------------------------------
 Gaussian Input Prepared from Scan Object
 ----------------------------------------
 Symbolic Z-matrix:
 Charge =  0 Multiplicity = 1

 SCF Done:  E(RM062X) =  -307.676359431     A.U. after   12 cycles

  Exact polarizability:   0.000   0.000   0.000   0.000   0.000   0.000
 Approx polarizability:  63.729  -1.129  68.878   0.000   0.000  55.052

 Optimization completed.
    -- Stationary point found.
 SCF Done:  E(RM062X) =  -307.675128439     A.U. after   11 cycles
 SCF Done:  E(RM062X) =  -307.676271995     A.U. after   11 cycles
 SCF Done:  E(RM062X) =  -307.676283247     A.U. after    9 cycles
 Optimization completed.
 SCF Done:  E(RM062X) =  -307.674909123     A.U. after   11 cycles
 SCF Done:  E(RM062X) =  -307.676055645     A.U. after   11 cycles
 SCF Done:  E(RM062X) =  -307.676068190     A.U. after    9 cycles
 SCF Done:  E(RM062X) =  -307.674549385     A.U. after   11 cycles
 SCF Done:  E(RM062X) =  -307.675714044     A.U. after   11 cycles
 SCF Done:  E(RM062X) =  -307.675734818     A.U. after   10 cycles
 SCF Done:  E(RM062X) =  -307.674845356     A.U. after   11 cycles
 SCF Done:  E(RM062X) =  -307.676069236     A.U. after   11 cycles
 SCF Done:  E(RM062X) =  -307.676078264     A.U. after    9 cycles
 SCF Done:  E(RM062X) =  -307.675095298     A.U. after   11 cycles
 SCF Done:  E(RM062X) =  -307.676277069     A.U. after   11 cycles
 SCF Done:  E(RM062X) =  -307.676284424     A.U. after    9 cycles
    -- Stationary point found.
 SCF Done:  E(RM062X) =  -307.675186853     A.U. after   11 cycles
 SCF Done:  E(RM062X) =  -307.676351023     A.U. after   11 cycles
 SCF Done:  E(RM062X) =  -307.676359345     A.U. after    9 cycles
 SCF Done:  E(RM062X) =  -307.676359429     A.U. after    6 cycles
 Optimization completed.
    -- Stationary point found.

                         Standard orientation:
 ---------------------------------------------------------------------
 Center     Atomic      Atomic             Coordinates (Angstroms)
 Number     Number       Type             X           Y           Z
 ---------------------------------------------------------------------
      1          8           0        1.143262   -0.700731    0.000041
      2          8           0        0.101816    1.277705    0.000023
      3          6           0       -1.211120   -0.743727    0.000004
      4          6           0       -2.460684    0.119896   -0.000025
      5          6           0        2.388064   -0.006638   -0.000042
      6          6           0        0.051240    0.078856    0.000034
      7          1           0       -1.171957   -1.400921   -0.870471
      8          1           0       -1.172043   -1.401009    0.870407
      9          1           0       -2.484303    0.763458    0.877149
     10          1           0       -3.354176   -0.501423   -0.000278
     11          1           0       -2.484063    0.763786   -0.876969
     12          1           0        3.157085   -0.771715   -0.000037
     13          1           0        2.471881    0.620817   -0.885225
     14          1           0        2.471946    0.620895    0.885080
 ---------------------------------------------------------------------

 The electronic state is 1-A.
 Alpha  occ. eigenvalues --  -19.66864 -19.61279 -10.66806 -10.58922 -10.55063
 Alpha  occ. eigenvalues --  -10.52800  -1.23856  -1.14353  -0.89349  -0.82387
 Alpha  occ. eigenvalues --   -0.73252  -0.64607  -0.58973  -0.58006  -0.56227
 Alpha  occ. eigenvalues --   -0.52482  -0.50589  -0.46018  -0.44639  -0.44048
 Alpha  occ. eigenvalues --   -0.42653  -0.41442  -0.37843  -0.35594
 Alpha virt. eigenvalues --    0.01131   0.02431   0.03677   0.03960   0.05005
 Alpha virt. eigenvalues --    0.05090   0.05753   0.06577   0.08384   0.08734
 Alpha virt. eigenvalues --    0.09016   0.09734   0.10542   0.12387   0.14286

 Mulliken charges:
               1
     1  O   -0.163500
     2  O   -0.407933
     3  C   -0.122919
     4  C   -0.485093
     5  C   -0.184707
     6  C    0.206569
     7  H    0.156795
     8  H    0.156800
     9  H    0.150340
    10  H    0.133787
    11  H    0.150338
    12  H    0.131995
    13  H    0.138763
    14  H    0.138765
 Sum of Mulliken charges =  -0.00000

 Dipole moment (field-independent basis, Debye):
    X=              0.3636    Y=             -1.6692    Z=             -0.0001  Tot=              1.7084
 Quadrupole moment (field-independent basis, Debye-Ang):
   XX=            -30.8403   YY=            -41.3454   ZZ=            -35.8975
   XY=              1.4922   XZ=             -0.0002   YZ=             -0.0000

 Normal termination of Gaussian 16 at Tue Mar 12 02:04:27 2019.
