 Gaussian 16, Revision A.03,
 Gaussian 16:  EM64L-G16RevA.03 25-Dec-2016

 ----------------------------------------------
 #p m062x/6-311+g(2df,2p) Opt=(CalcFC,ModRedun)
 ----------------------------------------------

 ----------------------------------------
 Gaussian Input Prepared from Scan Object
 ----------------------------------------
 Symbolic Z-matrix:
 Charge =  0 Multiplicity = 1

 SCF Done:  E(RM062X) =  -307.676359431     A.U. after   12 cycles

  Exact polarizability:   0.000   0.000   0.000   0.000   0.000   0.000
 Approx polarizability:  63.729  -1.129  68.878   0.000   0.000  55.052

 Optimization completed.
    -- Stationary point found.
 SCF Done:  E(RM062X) =  -307.675099394     A.U. after   11 cycles
 SCF Done:  E(RM062X) =  -307.676276724     A.U. after   11 cycles
 SCF Done:  E(RM062X) =  -307.676284431     A.U. after    9 cycles
 Optimization completed.
 SCF Done:  E(RM062X) =  -307.674870018     A.U. after   11 cycles
 SCF Done:  E(RM062X) =  -307.676070687     A.U. after   11 cycles
 SCF Done:  E(RM062X) =  -307.676078245     A.U. after    9 cycles
 SCF Done:  E(RM062X) =  -307.676078280     A.U. after    6 cycles
 SCF Done:  E(RM062X) =  -307.674523084     A.U. after   11 cycles
 SCF Done:  E(RM062X) =  -307.675754129     A.U. after   11 cycles
 SCF Done:  E(RM062X) =  -307.674852680     A.U. after   11 cycles
 SCF Done:  E(RM062X) =  -307.676063456     A.U. after   11 cycles
 SCF Done:  E(RM062X) =  -307.676068190     A.U. after    9 cycles
 SCF Done:  E(RM062X) =  -307.676068231     A.U. after    6 cycles
 SCF Done:  E(RM062X) =  -307.675099106     A.U. after   11 cycles
 SCF Done:  E(RM062X) =  -307.676280754     A.U. after   11 cycles
 SCF Done:  E(RM062X) =  -307.676283250     A.U. after    8 cycles
    -- Stationary point found.
 SCF Done:  E(RM062X) =  -307.675179007     A.U. after   11 cycles
 SCF Done:  E(RM062X) =  -307.676356122     A.U. after   11 cycles
 SCF Done:  E(RM062X) =  -307.676359424     A.U. after    8 cycles
 Optimization completed.
    -- Stationary point found.

                         Standard orientation:
 ---------------------------------------------------------------------
 Center     Atomic      Atomic             Coordinates (Angstroms)
 Number     Number       Type             X           Y           Z
 ---------------------------------------------------------------------
      1          8           0        1.143264   -0.700720    0.000034
      2          8           0        0.101761    1.277687   -0.000050
      3          6           0       -1.211112   -0.743796   -0.000090
      4          6           0       -2.460626    0.119928    0.000078
      5          6           0        2.388045   -0.006602    0.000036
      6          6           0        0.051226    0.078834   -0.000055
      7          1           0       -1.172038   -1.401006   -0.870523
      8          1           0       -1.171853   -1.401018    0.870350
      9          1           0       -2.483929    0.763712    0.877102
     10          1           0       -3.354148   -0.501350    0.000277
     11          1           0       -2.484271    0.763615   -0.876995
     12          1           0        3.157084   -0.771662    0.000236
     13          1           0        2.471963    0.620738   -0.885219
     14          1           0        2.471795    0.621049    0.885086
 ---------------------------------------------------------------------

 The electronic state is 1-A.
 Alpha  occ. eigenvalues --  -19.66864 -19.61279 -10.66806 -10.58922 -10.55062
 Alpha  occ. eigenvalues --  -10.52800  -1.23856  -1.14353  -0.89349  -0.82387
 Alpha  occ. eigenvalues --   -0.73252  -0.64607  -0.58973  -0.58006  -0.56227
 Alpha  occ. eigenvalues --   -0.52482  -0.50589  -0.46017  -0.44638  -0.44049
 Alpha  occ. eigenvalues --   -0.42652  -0.41443  -0.37843  -0.35594
 Alpha virt. eigenvalues --    0.01131   0.02431   0.03677   0.03960   0.05005
 Alpha virt. eigenvalues --    0.05090   0.05753   0.06577   0.08384   0.08734
 Alpha virt. eigenvalues --    0.09015   0.09734   0.10542   0.12387   0.14286

 Mulliken charges:
               1
     1  O   -0.163498
     2  O   -0.407937
     3  C   -0.122939
     4  C   -0.485096
     5  C   -0.184706
     6  C    0.206578
     7  H    0.156803
     8  H    0.156801
     9  H    0.150342
    10  H    0.133783
    11  H    0.150348
    12  H    0.131994
    13  H    0.138764
    14  H    0.138764
 Sum of Mulliken charges =  -0.00000

 Dipole moment (field-independent basis, Debye):
    X=              0.3637    Y=             -1.6692    Z=              0.0000  Tot=              1.7084
 Quadrupole moment (field-independent basis, Debye-Ang):
   XX=            -30.8408   YY=            -41.3450   ZZ=            -35.8975
   XY=              1.4921   XZ=              0.0002   YZ=              0.0003

 Normal termination of Gaussian 16 at Mon Mar 11 20:53:55 2019.
