 Gaussian 16, Revision A.03,
 Gaussian 16:  EM64L-G16RevA.03 25-Dec-2016

 ----------------------------------------------
 #p m062x/6-311+g(2df,2p) Opt=(CalcFC,ModRedun)
 ----------------------------------------------

 ----------------------------------------
 Gaussian Input Prepared from Scan Object
 ----------------------------------------
 Symbolic Z-matrix:
 Charge =  0 Multiplicity = 1

 SCF Done:  E(RM062X) =  -307.676359431     A.U. after   12 cycles

  Exact polarizability:   0.000   0.000   0.000   0.000   0.000   0.000
 Approx polarizability:  63.729  -1.129  68.878   0.000   0.000  55.052

 Optimization completed.
    -- Stationary point found.
 SCF Done:  E(RM062X) =  -307.674961585     A.U. after   10 cycles
 SCF Done:  E(RM062X) =  -307.676097427     A.U. after   11 cycles
 SCF Done:  E(RM062X) =  -307.676117423     A.U. after    9 cycles
 SCF Done:  E(RM062X) =  -307.676117461     A.U. after    7 cycles
 Optimization completed.
 SCF Done:  E(RM062X) =  -307.674240743     A.U. after   11 cycles
 SCF Done:  E(RM062X) =  -307.675419519     A.U. after   11 cycles
 SCF Done:  E(RM062X) =  -307.675449849     A.U. after    9 cycles
 SCF Done:  E(RM062X) =  -307.675449885     A.U. after    8 cycles
 SCF Done:  E(RM062X) =  -307.673217151     A.U. after   11 cycles
 SCF Done:  E(RM062X) =  -307.675432108     A.U. after   11 cycles
 SCF Done:  E(RM062X) =  -307.675453946     A.U. after   10 cycles
 SCF Done:  E(RM062X) =  -307.675454069     A.U. after    7 cycles
 SCF Done:  E(RM062X) =  -307.674909423     A.U. after   10 cycles
 SCF Done:  E(RM062X) =  -307.676100831     A.U. after   11 cycles
 SCF Done:  E(RM062X) =  -307.676117813     A.U. after    8 cycles
 SCF Done:  E(RM062X) =  -307.676117872     A.U. after    7 cycles
    -- Stationary point found.
 SCF Done:  E(RM062X) =  -307.675203401     A.U. after   10 cycles
 SCF Done:  E(RM062X) =  -307.676345265     A.U. after   11 cycles
 SCF Done:  E(RM062X) =  -307.676359381     A.U. after    9 cycles
 Optimization completed.
    -- Stationary point found.

                         Standard orientation:
 ---------------------------------------------------------------------
 Center     Atomic      Atomic             Coordinates (Angstroms)
 Number     Number       Type             X           Y           Z
 ---------------------------------------------------------------------
      1          8           0        1.143349   -0.700729    0.000217
      2          8           0        0.101499    1.277533   -0.000200
      3          6           0       -1.211125   -0.743905   -0.000336
      4          6           0       -2.460409    0.120047    0.000340
      5          6           0        2.388027   -0.006416    0.000087
      6          6           0        0.051195    0.078664   -0.000071
      7          1           0       -1.172442   -1.400366   -0.871397
      8          1           0       -1.171933   -1.401870    0.869533
      9          1           0       -2.483662    0.763133    0.877866
     10          1           0       -3.354108   -0.501008   -0.000205
     11          1           0       -2.483490    0.764508   -0.876193
     12          1           0        3.157190   -0.771351    0.000402
     13          1           0        2.471833    0.620785   -0.885280
     14          1           0        2.471698    0.621400    0.885027
 ---------------------------------------------------------------------

 The electronic state is 1-A.
 Alpha  occ. eigenvalues --  -19.66865 -19.61279 -10.66806 -10.58922 -10.55061
 Alpha  occ. eigenvalues --  -10.52798  -1.23856  -1.14354  -0.89350  -0.82387
 Alpha  occ. eigenvalues --   -0.73250  -0.64607  -0.58975  -0.58006  -0.56227
 Alpha  occ. eigenvalues --   -0.52483  -0.50590  -0.46017  -0.44638  -0.44047
 Alpha  occ. eigenvalues --   -0.42652  -0.41442  -0.37844  -0.35594
 Alpha virt. eigenvalues --    0.01131   0.02431   0.03677   0.03960   0.05004
 Alpha virt. eigenvalues --    0.05090   0.05753   0.06578   0.08384   0.08734
 Alpha virt. eigenvalues --    0.09015   0.09734   0.10542   0.12388   0.14286

 Mulliken charges:
               1
     1  O   -0.163499
     2  O   -0.407938
     3  C   -0.123092
     4  C   -0.485034
     5  C   -0.184686
     6  C    0.206656
     7  H    0.156819
     8  H    0.156776
     9  H    0.150342
    10  H    0.133772
    11  H    0.150359
    12  H    0.131995
    13  H    0.138760
    14  H    0.138769
 Sum of Mulliken charges =  -0.00000

 Dipole moment (field-independent basis, Debye):
    X=              0.3643    Y=             -1.6688    Z=             -0.0003  Tot=              1.7081
 Quadrupole moment (field-independent basis, Debye-Ang):
   XX=            -30.8419   YY=            -41.3443   ZZ=            -35.8975
   XY=              1.4939   XZ=              0.0007   YZ=              0.0010

 Normal termination of Gaussian 16 at Mon Mar 11 20:56:57 2019.
