 Gaussian 16, Revision A.03,
 Gaussian 16:  EM64L-G16RevA.03 25-Dec-2016

 ----------------------------------------------
 #p m062x/6-311+g(2df,2p) Opt=(CalcFC,ModRedun)
 ----------------------------------------------

 ----------------------------------------
 Gaussian Input Prepared from Scan Object
 ----------------------------------------
 Symbolic Z-matrix:
 Charge =  0 Multiplicity = 1

 SCF Done:  E(RM062X) =  -307.676359431     A.U. after   12 cycles

  Exact polarizability:   0.000   0.000   0.000   0.000   0.000   0.000
 Approx polarizability:  63.729  -1.129  68.878   0.000   0.000  55.052

 Optimization completed.
    -- Stationary point found.
 SCF Done:  E(RM062X) =  -307.674958209     A.U. after   10 cycles
 SCF Done:  E(RM062X) =  -307.676099604     A.U. after   11 cycles
 SCF Done:  E(RM062X) =  -307.676117831     A.U. after    8 cycles
 Optimization completed.
 SCF Done:  E(RM062X) =  -307.674253558     A.U. after   10 cycles
 SCF Done:  E(RM062X) =  -307.675429475     A.U. after   11 cycles
 SCF Done:  E(RM062X) =  -307.675454009     A.U. after    9 cycles
 SCF Done:  E(RM062X) =  -307.673255160     A.U. after   10 cycles
 SCF Done:  E(RM062X) =  -307.674502432     A.U. after   11 cycles
 SCF Done:  E(RM062X) =  -307.674538528     A.U. after   10 cycles
 SCF Done:  E(RM062X) =  -307.674095095     A.U. after   11 cycles
 SCF Done:  E(RM062X) =  -307.675431246     A.U. after   11 cycles
 SCF Done:  E(RM062X) =  -307.675449845     A.U. after    9 cycles
 SCF Done:  E(RM062X) =  -307.675449883     A.U. after    6 cycles
 SCF Done:  E(RM062X) =  -307.674874660     A.U. after   11 cycles
 SCF Done:  E(RM062X) =  -307.676104470     A.U. after   11 cycles
 SCF Done:  E(RM062X) =  -307.676117391     A.U. after    8 cycles
    -- Stationary point found.
 SCF Done:  E(RM062X) =  -307.675187303     A.U. after   10 cycles
 SCF Done:  E(RM062X) =  -307.676345418     A.U. after   11 cycles
 SCF Done:  E(RM062X) =  -307.676359401     A.U. after    8 cycles
 Optimization completed.
    -- Stationary point found.

                         Standard orientation:
 ---------------------------------------------------------------------
 Center     Atomic      Atomic             Coordinates (Angstroms)
 Number     Number       Type             X           Y           Z
 ---------------------------------------------------------------------
      1          8           0        1.143268   -0.700752   -0.000152
      2          8           0        0.101927    1.277714    0.000216
      3          6           0       -1.211203   -0.743629    0.000356
      4          6           0       -2.460749    0.119909   -0.000319
      5          6           0        2.388097   -0.006700   -0.000148
      6          6           0        0.051270    0.078865    0.000147
      7          1           0       -1.172230   -1.401162   -0.869852
      8          1           0       -1.172179   -1.400469    0.871100
      9          1           0       -2.484407    0.764038    0.876435
     10          1           0       -3.354106   -0.501635   -0.000167
     11          1           0       -2.484136    0.763079   -0.877811
     12          1           0        3.157091   -0.771805   -0.000561
     13          1           0        2.471796    0.621117   -0.885084
     14          1           0        2.472120    0.620470    0.885219
 ---------------------------------------------------------------------

 The electronic state is 1-A.
 Alpha  occ. eigenvalues --  -19.66864 -19.61279 -10.66806 -10.58922 -10.55062
 Alpha  occ. eigenvalues --  -10.52800  -1.23856  -1.14353  -0.89350  -0.82387
 Alpha  occ. eigenvalues --   -0.73251  -0.64607  -0.58973  -0.58005  -0.56227
 Alpha  occ. eigenvalues --   -0.52484  -0.50589  -0.46019  -0.44639  -0.44047
 Alpha  occ. eigenvalues --   -0.42652  -0.41443  -0.37843  -0.35593
 Alpha virt. eigenvalues --    0.01131   0.02431   0.03678   0.03960   0.05005
 Alpha virt. eigenvalues --    0.05090   0.05753   0.06577   0.08385   0.08733
 Alpha virt. eigenvalues --    0.09016   0.09734   0.10542   0.12387   0.14286

 Mulliken charges:
               1
     1  O   -0.163491
     2  O   -0.407934
     3  C   -0.122948
     4  C   -0.485042
     5  C   -0.184704
     6  C    0.206571
     7  H    0.156804
     8  H    0.156786
     9  H    0.150328
    10  H    0.133781
    11  H    0.150325
    12  H    0.131996
    13  H    0.138767
    14  H    0.138763
 Sum of Mulliken charges =  -0.00000

 Dipole moment (field-independent basis, Debye):
    X=              0.3634    Y=             -1.6693    Z=             -0.0000  Tot=              1.7084
 Quadrupole moment (field-independent basis, Debye-Ang):
   XX=            -30.8400   YY=            -41.3462   ZZ=            -35.8970
   XY=              1.4926   XZ=              0.0001   YZ=             -0.0011

 Normal termination of Gaussian 16 at Tue Mar 12 02:08:04 2019.
