 Gaussian 16, Revision A.03,
 Gaussian 16:  EM64L-G16RevA.03 25-Dec-2016

 ----------------------------------------------
 #p m062x/6-311+g(2df,2p) Opt=(CalcFC,ModRedun)
 ----------------------------------------------

 ----------------------------------------
 Gaussian Input Prepared from Scan Object
 ----------------------------------------
 Symbolic Z-matrix:
 Charge =  0 Multiplicity = 1

 SCF Done:  E(RM062X) =  -307.676359431     A.U. after   12 cycles

  Exact polarizability:   0.000   0.000   0.000   0.000   0.000   0.000
 Approx polarizability:  63.729  -1.129  68.878   0.000   0.000  55.052

 Optimization completed.
    -- Stationary point found.
 SCF Done:  E(RM062X) =  -307.664084412     A.U. after   12 cycles
 SCF Done:  E(RM062X) =  -307.672314080     A.U. after   11 cycles
 SCF Done:  E(RM062X) =  -307.674535898     A.U. after   11 cycles
 SCF Done:  E(RM062X) =  -307.674560664     A.U. after   10 cycles
 SCF Done:  E(RM062X) =  -307.674561446     A.U. after    8 cycles
 SCF Done:  E(RM062X) =  -307.674561545     A.U. after    7 cycles
 Optimization completed.
 SCF Done:  E(RM062X) =  -307.659905037     A.U. after   12 cycles
 SCF Done:  E(RM062X) =  -307.669158708     A.U. after   11 cycles
 SCF Done:  E(RM062X) =  -307.672505192     A.U. after   11 cycles
 SCF Done:  E(RM062X) =  -307.671066734     A.U. after   11 cycles
 SCF Done:  E(RM062X) =  -307.674512080     A.U. after   11 cycles
 SCF Done:  E(RM062X) =  -307.674558490     A.U. after   11 cycles
 SCF Done:  E(RM062X) =  -307.674561408     A.U. after    9 cycles
 SCF Done:  E(RM062X) =  -307.674561547     A.U. after    7 cycles
    -- Stationary point found.
 SCF Done:  E(RM062X) =  -307.665484130     A.U. after   12 cycles
 SCF Done:  E(RM062X) =  -307.674259684     A.U. after   11 cycles
 SCF Done:  E(RM062X) =  -307.676316598     A.U. after   11 cycles
 SCF Done:  E(RM062X) =  -307.676357993     A.U. after   11 cycles
 SCF Done:  E(RM062X) =  -307.676359394     A.U. after    8 cycles
 Optimization completed.
    -- Stationary point found.

                         Standard orientation:
 ---------------------------------------------------------------------
 Center     Atomic      Atomic             Coordinates (Angstroms)
 Number     Number       Type             X           Y           Z
 ---------------------------------------------------------------------
      1          8           0        1.143321   -0.700745    0.000112
      2          8           0        0.101931    1.277728   -0.000257
      3          6           0       -1.211148   -0.743559   -0.000365
      4          6           0       -2.460899    0.119819    0.000361
      5          6           0        2.388148   -0.006699    0.000178
      6          6           0        0.051319    0.078875   -0.000117
      7          1           0       -1.172010   -1.400450   -0.871088
      8          1           0       -1.172218   -1.401151    0.869792
      9          1           0       -2.484387    0.763109    0.877755
     10          1           0       -3.354228   -0.501738    0.000165
     11          1           0       -2.484872    0.763982   -0.876399
     12          1           0        3.157145   -0.771801    0.000430
     13          1           0        2.472150    0.620636   -0.885073
     14          1           0        2.471885    0.620946    0.885234
 ---------------------------------------------------------------------

 The electronic state is 1-A.
 Alpha  occ. eigenvalues --  -19.66864 -19.61279 -10.66807 -10.58922 -10.55063
 Alpha  occ. eigenvalues --  -10.52801  -1.23856  -1.14353  -0.89348  -0.82387
 Alpha  occ. eigenvalues --   -0.73252  -0.64607  -0.58973  -0.58005  -0.56227
 Alpha  occ. eigenvalues --   -0.52482  -0.50589  -0.46018  -0.44640  -0.44048
 Alpha  occ. eigenvalues --   -0.42653  -0.41442  -0.37844  -0.35593
 Alpha virt. eigenvalues --    0.01131   0.02431   0.03677   0.03960   0.05005
 Alpha virt. eigenvalues --    0.05090   0.05753   0.06577   0.08384   0.08734
 Alpha virt. eigenvalues --    0.09016   0.09734   0.10542   0.12387   0.14286

 Mulliken charges:
               1
     1  O   -0.163494
     2  O   -0.407930
     3  C   -0.122849
     4  C   -0.485094
     5  C   -0.184705
     6  C    0.206513
     7  H    0.156776
     8  H    0.156806
     9  H    0.150330
    10  H    0.133797
    11  H    0.150325
    12  H    0.131996
    13  H    0.138765
    14  H    0.138765
 Sum of Mulliken charges =  -0.00000

 Dipole moment (field-independent basis, Debye):
    X=              0.3633    Y=             -1.6694    Z=              0.0002  Tot=              1.7085
 Quadrupole moment (field-independent basis, Debye-Ang):
   XX=            -30.8383   YY=            -41.3462   ZZ=            -35.8976
   XY=              1.4920   XZ=              0.0003   YZ=              0.0014

 Normal termination of Gaussian 16 at Fri Mar 29 16:41:20 2019.
