 Gaussian 16, Revision A.03,
 Gaussian 16:  EM64L-G16RevA.03 25-Dec-2016

 ----------------------------------------------
 #p m062x/6-311+g(2df,2p) Opt=(CalcFC,ModRedun)
 ----------------------------------------------

 ----------------------------------------
 Gaussian Input Prepared from Scan Object
 ----------------------------------------
 Symbolic Z-matrix:
 Charge =  0 Multiplicity = 1

 SCF Done:  E(RM062X) =  -307.676359431     A.U. after   12 cycles

  Exact polarizability:   0.000   0.000   0.000   0.000   0.000   0.000
 Approx polarizability:  63.729  -1.129  68.878   0.000   0.000  55.052

 Optimization completed.
    -- Stationary point found.
 SCF Done:  E(RM062X) =  -307.675276408     A.U. after   10 cycles
 SCF Done:  E(RM062X) =  -307.676201477     A.U. after   10 cycles
 SCF Done:  E(RM062X) =  -307.676203729     A.U. after    8 cycles
 Optimization completed.
 SCF Done:  E(RM062X) =  -307.674832941     A.U. after   10 cycles
 SCF Done:  E(RM062X) =  -307.675798167     A.U. after   10 cycles
 SCF Done:  E(RM062X) =  -307.675801040     A.U. after    8 cycles
 SCF Done:  E(RM062X) =  -307.674259166     A.U. after   10 cycles
 SCF Done:  E(RM062X) =  -307.675291780     A.U. after   10 cycles
 SCF Done:  E(RM062X) =  -307.675293334     A.U. after    7 cycles
 SCF Done:  E(RM062X) =  -307.674748052     A.U. after   10 cycles
 SCF Done:  E(RM062X) =  -307.675790494     A.U. after   10 cycles
 SCF Done:  E(RM062X) =  -307.675793883     A.U. after    9 cycles
 SCF Done:  E(RM062X) =  -307.675793933     A.U. after    7 cycles
 SCF Done:  E(RM062X) =  -307.675215476     A.U. after   10 cycles
 SCF Done:  E(RM062X) =  -307.676201176     A.U. after   10 cycles
 SCF Done:  E(RM062X) =  -307.676202468     A.U. after    8 cycles
    -- Stationary point found.
 SCF Done:  E(RM062X) =  -307.675423370     A.U. after   10 cycles
 SCF Done:  E(RM062X) =  -307.676357103     A.U. after   10 cycles
 SCF Done:  E(RM062X) =  -307.676359410     A.U. after    9 cycles
 Optimization completed.
    -- Stationary point found.

                         Standard orientation:
 ---------------------------------------------------------------------
 Center     Atomic      Atomic             Coordinates (Angstroms)
 Number     Number       Type             X           Y           Z
 ---------------------------------------------------------------------
      1          8           0        1.143261   -0.700643    0.000337
      2          8           0        0.101695    1.277829    0.000161
      3          6           0       -1.211072   -0.743700   -0.000038
      4          6           0       -2.460753    0.119738   -0.000147
      5          6           0        2.388177   -0.006739   -0.000288
      6          6           0        0.051241    0.078982    0.000127
      7          1           0       -1.171743   -1.400929   -0.870477
      8          1           0       -1.171925   -1.400981    0.870368
      9          1           0       -2.484431    0.763456    0.876913
     10          1           0       -3.354157   -0.501708   -0.000233
     11          1           0       -2.484273    0.763468   -0.877203
     12          1           0        3.157162   -0.771870    0.000001
     13          1           0        2.471939    0.620181   -0.885823
     14          1           0        2.472226    0.621207    0.884543
 ---------------------------------------------------------------------

 The electronic state is 1-A.
 Alpha  occ. eigenvalues --  -19.66864 -19.61280 -10.66806 -10.58923 -10.55062
 Alpha  occ. eigenvalues --  -10.52800  -1.23854  -1.14354  -0.89349  -0.82387
 Alpha  occ. eigenvalues --   -0.73252  -0.64606  -0.58972  -0.58005  -0.56227
 Alpha  occ. eigenvalues --   -0.52482  -0.50590  -0.46019  -0.44640  -0.44048
 Alpha  occ. eigenvalues --   -0.42652  -0.41442  -0.37844  -0.35594
 Alpha virt. eigenvalues --    0.01131   0.02431   0.03677   0.03960   0.05005
 Alpha virt. eigenvalues --    0.05090   0.05753   0.06577   0.08384   0.08734
 Alpha virt. eigenvalues --    0.09016   0.09734   0.10541   0.12387   0.14286

 Mulliken charges:
               1
     1  O   -0.163489
     2  O   -0.407922
     3  C   -0.122853
     4  C   -0.485108
     5  C   -0.184717
     6  C    0.206527
     7  H    0.156793
     8  H    0.156797
     9  H    0.150336
    10  H    0.133786
    11  H    0.150335
    12  H    0.131992
    13  H    0.138758
    14  H    0.138764
 Sum of Mulliken charges =  -0.00000

 Dipole moment (field-independent basis, Debye):
    X=              0.3642    Y=             -1.6695    Z=             -0.0010  Tot=              1.7088
 Quadrupole moment (field-independent basis, Debye-Ang):
   XX=            -30.8391   YY=            -41.3460   ZZ=            -35.8975
   XY=              1.4915   XZ=             -0.0015   YZ=              0.0002

 Normal termination of Gaussian 16 at Mon Mar 11 20:43:40 2019.
