 Gaussian 16, Revision A.03,
 Gaussian 16:  EM64L-G16RevA.03 25-Dec-2016

 ----------------------------------------------
 #p m062x/6-311+g(2df,2p) Opt=(CalcFC,ModRedun)
 ----------------------------------------------

 ----------------------------------------
 Gaussian Input Prepared from Scan Object
 ----------------------------------------
 Symbolic Z-matrix:
 Charge =  0 Multiplicity = 1

 SCF Done:  E(RM062X) =  -307.676359431     A.U. after   12 cycles

  Exact polarizability:   0.000   0.000   0.000   0.000   0.000   0.000
 Approx polarizability:  63.729  -1.129  68.878   0.000   0.000  55.052

 Optimization completed.
    -- Stationary point found.
 SCF Done:  E(RM062X) =  -307.664822047     A.U. after   12 cycles
 SCF Done:  E(RM062X) =  -307.673940015     A.U. after   11 cycles
 SCF Done:  E(RM062X) =  -307.675649873     A.U. after   11 cycles
 SCF Done:  E(RM062X) =  -307.675663743     A.U. after    8 cycles
 SCF Done:  E(RM062X) =  -307.675663853     A.U. after    7 cycles
 Optimization completed.
 SCF Done:  E(RM062X) =  -307.662749642     A.U. after   12 cycles
 SCF Done:  E(RM062X) =  -307.672494071     A.U. after   11 cycles
 SCF Done:  E(RM062X) =  -307.674595575     A.U. after   11 cycles
 SCF Done:  E(RM062X) =  -307.674629917     A.U. after   10 cycles
 SCF Done:  E(RM062X) =  -307.663345982     A.U. after   12 cycles
 SCF Done:  E(RM062X) =  -307.673584193     A.U. after   11 cycles
 SCF Done:  E(RM062X) =  -307.675608778     A.U. after   11 cycles
 SCF Done:  E(RM062X) =  -307.675660802     A.U. after   10 cycles
 SCF Done:  E(RM062X) =  -307.675663789     A.U. after    9 cycles
    -- Stationary point found.
 SCF Done:  E(RM062X) =  -307.665381804     A.U. after   12 cycles
 SCF Done:  E(RM062X) =  -307.674697807     A.U. after   11 cycles
 SCF Done:  E(RM062X) =  -307.676341544     A.U. after   11 cycles
 SCF Done:  E(RM062X) =  -307.676358778     A.U. after    9 cycles
 SCF Done:  E(RM062X) =  -307.676359412     A.U. after    8 cycles
 Optimization completed.
    -- Stationary point found.

                         Standard orientation:
 ---------------------------------------------------------------------
 Center     Atomic      Atomic             Coordinates (Angstroms)
 Number     Number       Type             X           Y           Z
 ---------------------------------------------------------------------
      1          8           0        1.143213   -0.700749   -0.000035
      2          8           0        0.102031    1.277816   -0.000013
      3          6           0       -1.211133   -0.743663   -0.000008
      4          6           0       -2.460825    0.119847    0.000020
      5          6           0        2.388069   -0.006771    0.000023
      6          6           0        0.051234    0.078962   -0.000020
      7          1           0       -1.172147   -1.400969   -0.870365
      8          1           0       -1.171840   -1.400867    0.870478
      9          1           0       -2.484040    0.763956    0.876792
     10          1           0       -3.354207   -0.501628    0.000607
     11          1           0       -2.484774    0.763202   -0.877310
     12          1           0        3.157022   -0.771919    0.000002
     13          1           0        2.471994    0.620751   -0.885105
     14          1           0        2.471966    0.620683    0.885202
 ---------------------------------------------------------------------

 The electronic state is 1-A.
 Alpha  occ. eigenvalues --  -19.66863 -19.61280 -10.66807 -10.58921 -10.55064
 Alpha  occ. eigenvalues --  -10.52801  -1.23855  -1.14352  -0.89349  -0.82386
 Alpha  occ. eigenvalues --   -0.73252  -0.64606  -0.58973  -0.58005  -0.56226
 Alpha  occ. eigenvalues --   -0.52482  -0.50589  -0.46018  -0.44639  -0.44048
 Alpha  occ. eigenvalues --   -0.42653  -0.41443  -0.37843  -0.35594
 Alpha virt. eigenvalues --    0.01131   0.02431   0.03677   0.03960   0.05005
 Alpha virt. eigenvalues --    0.05089   0.05753   0.06577   0.08384   0.08733
 Alpha virt. eigenvalues --    0.09016   0.09734   0.10542   0.12387   0.14286

 Mulliken charges:
               1
     1  O   -0.163506
     2  O   -0.407922
     3  C   -0.122849
     4  C   -0.485113
     5  C   -0.184716
     6  C    0.206524
     7  H    0.156813
     8  H    0.156792
     9  H    0.150332
    10  H    0.133790
    11  H    0.150340
    12  H    0.131993
    13  H    0.138762
    14  H    0.138761
 Sum of Mulliken charges =  -0.00000

 Dipole moment (field-independent basis, Debye):
    X=              0.3628    Y=             -1.6695    Z=              0.0001  Tot=              1.7085
 Quadrupole moment (field-independent basis, Debye-Ang):
   XX=            -30.8402   YY=            -41.3457   ZZ=            -35.8977
   XY=              1.4917   XZ=              0.0005   YZ=             -0.0000

 Normal termination of Gaussian 16 at Fri Mar 29 17:03:14 2019.
