 Gaussian 16, Revision A.03,
 Gaussian 16:  EM64L-G16RevA.03 25-Dec-2016

 ----------------------------------------------
 #p m062x/6-311+g(2df,2p) Opt=(CalcFC,ModRedun)
 ----------------------------------------------

 ----------------------------------------
 Gaussian Input Prepared from Scan Object
 ----------------------------------------
 Symbolic Z-matrix:
 Charge =  0 Multiplicity = 1

 SCF Done:  E(RM062X) =  -307.676359431     A.U. after   12 cycles

  Exact polarizability:   0.000   0.000   0.000   0.000   0.000   0.000
 Approx polarizability:  63.729  -1.129  68.878   0.000   0.000  55.052

 Optimization completed.
    -- Stationary point found.
 SCF Done:  E(RM062X) =  -307.675283512     A.U. after   10 cycles
 SCF Done:  E(RM062X) =  -307.676199834     A.U. after   10 cycles
 SCF Done:  E(RM062X) =  -307.676202462     A.U. after    8 cycles
 Optimization completed.
 SCF Done:  E(RM062X) =  -307.674824196     A.U. after   10 cycles
 SCF Done:  E(RM062X) =  -307.675791094     A.U. after   11 cycles
 SCF Done:  E(RM062X) =  -307.675793918     A.U. after    8 cycles
 SCF Done:  E(RM062X) =  -307.674244729     A.U. after   10 cycles
 SCF Done:  E(RM062X) =  -307.675278480     A.U. after   10 cycles
 SCF Done:  E(RM062X) =  -307.675280192     A.U. after    7 cycles
 SCF Done:  E(RM062X) =  -307.675293320     A.U. after    7 cycles
 SCF Done:  E(RM062X) =  -307.674773668     A.U. after   10 cycles
 SCF Done:  E(RM062X) =  -307.675797347     A.U. after    9 cycles
 SCF Done:  E(RM062X) =  -307.675801024     A.U. after    9 cycles
 SCF Done:  E(RM062X) =  -307.675243731     A.U. after   10 cycles
 SCF Done:  E(RM062X) =  -307.676201614     A.U. after   10 cycles
 SCF Done:  E(RM062X) =  -307.676203714     A.U. after    9 cycles
    -- Stationary point found.
 SCF Done:  E(RM062X) =  -307.675443752     A.U. after   10 cycles
 SCF Done:  E(RM062X) =  -307.676356886     A.U. after   10 cycles
 SCF Done:  E(RM062X) =  -307.676359407     A.U. after    8 cycles
 Optimization completed.
    -- Stationary point found.

                         Standard orientation:
 ---------------------------------------------------------------------
 Center     Atomic      Atomic             Coordinates (Angstroms)
 Number     Number       Type             X           Y           Z
 ---------------------------------------------------------------------
      1          8           0        1.143275   -0.700832   -0.000405
      2          8           0        0.102016    1.277635   -0.000023
      3          6           0       -1.211183   -0.743674    0.000235
      4          6           0       -2.460714    0.119984   -0.000054
      5          6           0        2.387963   -0.006600    0.000202
      6          6           0        0.051258    0.078792   -0.000063
      7          1           0       -1.172072   -1.401273   -0.869931
      8          1           0       -1.172054   -1.400596    0.870918
      9          1           0       -2.484159    0.764058    0.876750
     10          1           0       -3.354229   -0.501302    0.000224
     11          1           0       -2.484234    0.763366   -0.877366
     12          1           0        3.157068   -0.771588   -0.000249
     13          1           0        2.471719    0.621545   -0.884546
     14          1           0        2.471686    0.620354    0.885708
 ---------------------------------------------------------------------

 The electronic state is 1-A.
 Alpha  occ. eigenvalues --  -19.66863 -19.61279 -10.66806 -10.58921 -10.55064
 Alpha  occ. eigenvalues --  -10.52801  -1.23856  -1.14353  -0.89350  -0.82386
 Alpha  occ. eigenvalues --   -0.73252  -0.64607  -0.58974  -0.58006  -0.56227
 Alpha  occ. eigenvalues --   -0.52482  -0.50589  -0.46017  -0.44639  -0.44049
 Alpha  occ. eigenvalues --   -0.42654  -0.41442  -0.37843  -0.35594
 Alpha virt. eigenvalues --    0.01131   0.02431   0.03677   0.03960   0.05005
 Alpha virt. eigenvalues --    0.05090   0.05753   0.06577   0.08384   0.08734
 Alpha virt. eigenvalues --    0.09016   0.09734   0.10542   0.12387   0.14286

 Mulliken charges:
               1
     1  O   -0.163517
     2  O   -0.407926
     3  C   -0.122894
     4  C   -0.485101
     5  C   -0.184700
     6  C    0.206551
     7  H    0.156796
     8  H    0.156800
     9  H    0.150341
    10  H    0.133793
    11  H    0.150336
    12  H    0.131996
    13  H    0.138760
    14  H    0.138765
 Sum of Mulliken charges =  -0.00000

 Dipole moment (field-independent basis, Debye):
    X=              0.3625    Y=             -1.6690    Z=              0.0010  Tot=              1.7079
 Quadrupole moment (field-independent basis, Debye-Ang):
   XX=            -30.8412   YY=            -41.3451   ZZ=            -35.8977
   XY=              1.4922   XZ=              0.0013   YZ=             -0.0008

 Normal termination of Gaussian 16 at Tue Mar 12 01:33:56 2019.
