 Gaussian 16, Revision A.03,
 Gaussian 16:  EM64L-G16RevA.03 25-Dec-2016

 ----------------------------------------------
 #p m062x/6-311+g(2df,2p) Opt=(CalcFC,ModRedun)
 ----------------------------------------------

 ----------------------------------------
 Gaussian Input Prepared from Scan Object
 ----------------------------------------
 Symbolic Z-matrix:
 Charge =  0 Multiplicity = 1

 SCF Done:  E(RM062X) =  -307.676359431     A.U. after   12 cycles

  Exact polarizability:   0.000   0.000   0.000   0.000   0.000   0.000
 Approx polarizability:  63.729  -1.129  68.878   0.000   0.000  55.052

 Optimization completed.
    -- Stationary point found.
 SCF Done:  E(RM062X) =  -307.675657199     A.U. after   11 cycles
 SCF Done:  E(RM062X) =  -307.675741378     A.U. after   10 cycles
 Optimization completed.
 SCF Done:  E(RM062X) =  -307.673869496     A.U. after   11 cycles
 SCF Done:  E(RM062X) =  -307.673973234     A.U. after   10 cycles
 SCF Done:  E(RM062X) =  -307.671153331     A.U. after   11 cycles
 SCF Done:  E(RM062X) =  -307.671296895     A.U. after   10 cycles
 SCF Done:  E(RM062X) =  -307.671297360     A.U. after    8 cycles
 SCF Done:  E(RM062X) =  -307.667872261     A.U. after   11 cycles
 SCF Done:  E(RM062X) =  -307.668071207     A.U. after   10 cycles
 SCF Done:  E(RM062X) =  -307.671290317     A.U. after   11 cycles
 SCF Done:  E(RM062X) =  -307.671291119     A.U. after    8 cycles
 SCF Done:  E(RM062X) =  -307.673838383     A.U. after   11 cycles
 SCF Done:  E(RM062X) =  -307.673969659     A.U. after   10 cycles
 SCF Done:  E(RM062X) =  -307.673970057     A.U. after    8 cycles
 SCF Done:  E(RM062X) =  -307.675644469     A.U. after   11 cycles
 SCF Done:  E(RM062X) =  -307.675740676     A.U. after   10 cycles
 SCF Done:  E(RM062X) =  -307.675740886     A.U. after    7 cycles
    -- Stationary point found.
 SCF Done:  E(RM062X) =  -307.676277824     A.U. after   11 cycles
 SCF Done:  E(RM062X) =  -307.676359375     A.U. after    9 cycles
 Optimization completed.
    -- Stationary point found.

                         Standard orientation:
 ---------------------------------------------------------------------
 Center     Atomic      Atomic             Coordinates (Angstroms)
 Number     Number       Type             X           Y           Z
 ---------------------------------------------------------------------
      1          8           0        1.143185   -0.700668   -0.000052
      2          8           0        0.101926    1.277771    0.000014
      3          6           0       -1.211101   -0.743734    0.000072
      4          6           0       -2.460678    0.119868   -0.000035
      5          6           0        2.388023   -0.006768   -0.000033
      6          6           0        0.051263    0.078876    0.000106
      7          1           0       -1.171812   -1.400743   -0.870581
      8          1           0       -1.171940   -1.401145    0.870365
      9          1           0       -2.484267    0.763640    0.876987
     10          1           0       -3.354160   -0.501457   -0.000071
     11          1           0       -2.484104    0.763548   -0.877128
     12          1           0        3.156916   -0.771968   -0.000332
     13          1           0        2.471505    0.621268   -0.884828
     14          1           0        2.471926    0.620585    0.885232
 ---------------------------------------------------------------------

 The electronic state is 1-A.
 Alpha  occ. eigenvalues --  -19.66864 -19.61277 -10.66806 -10.58922 -10.55063
 Alpha  occ. eigenvalues --  -10.52800  -1.23859  -1.14351  -0.89350  -0.82389
 Alpha  occ. eigenvalues --   -0.73251  -0.64609  -0.58972  -0.58007  -0.56227
 Alpha  occ. eigenvalues --   -0.52482  -0.50590  -0.46015  -0.44641  -0.44048
 Alpha  occ. eigenvalues --   -0.42653  -0.41442  -0.37842  -0.35593
 Alpha virt. eigenvalues --    0.01131   0.02431   0.03677   0.03960   0.05005
 Alpha virt. eigenvalues --    0.05090   0.05753   0.06577   0.08384   0.08733
 Alpha virt. eigenvalues --    0.09016   0.09734   0.10542   0.12387   0.14286

 Mulliken charges:
               1
     1  O   -0.163408
     2  O   -0.408001
     3  C   -0.122863
     4  C   -0.485104
     5  C   -0.184735
     6  C    0.206529
     7  H    0.156799
     8  H    0.156781
     9  H    0.150338
    10  H    0.133787
    11  H    0.150342
    12  H    0.132001
    13  H    0.138771
    14  H    0.138763
 Sum of Mulliken charges =  -0.00000

 Dipole moment (field-independent basis, Debye):
    X=              0.3637    Y=             -1.6700    Z=              0.0001  Tot=              1.7091
 Quadrupole moment (field-independent basis, Debye-Ang):
   XX=            -30.8409   YY=            -41.3452   ZZ=            -35.8980
   XY=              1.4907   XZ=              0.0004   YZ=             -0.0005

 Normal termination of Gaussian 16 at Tue Apr 23 22:49:58 2019.
